% Model:              cali 3.02 0.91mm 校准-校准液.mph
% Version:            COMSOL 6.2.0.290
% Date:               Oct 2 2024, 20:30
% Table:              表格 1 - 全局计算 1
% H_TUMOR (mm)           freq (Hz)                real(emw.S11) (1)        imag(emw.S11) (1)
1000000000 0.27440275987933377 0.8584885080394481
1050000000 0.4720332596819061 0.7604706830208092
1100000000 0.6385743290584931 0.6185654574678585
1150000000 0.7647487386734775 0.4419265891049472
1200000000 0.8438198241380168 0.24153191750391556
1250000000 0.8719103441789571 0.029516645722992015
1300000000 0.8481568464745017 -0.1815376874312913
1350000000 0.7746966415416683 -0.37932099314479795
1400000000 0.6564921629455029 -0.5524823947720775
1450000000 0.5010048824686752 -0.6912532858920213
1500000000 0.31773785088071893 -0.7879744359252641
1550000000 0.11767213861595582 -0.8375006140719785
1600000000 -0.08737227406543013 -0.8374621552930007
1650000000 -0.2854165454205956 -0.7883699848720639
1700000000 -0.46500682015317524 -0.693558658423949
1750000000 -0.6158640510895329 -0.5589706404458605
1800000000 -0.7294633493542746 -0.3927938906459197
1850000000 -0.7995099634595637 -0.20497331138650732
1900000000 -0.8222846283346806 -0.006624140276192557
1950000000 -0.7968385019709008 0.19061862937951646
2000000000 -0.7250267781379288 0.37527674775343217
2050000000 -0.6113797365449098 0.5366914844026283
2100000000 -0.4628197823325076 0.6656339826130225
2.15E9 -0.28824223078806005 0.7548279115666992
2.2E9 -0.09798556285104106 0.7993547544411979
2.25E9 0.09677691229575701 0.7969194431072689
2.3E9 0.2846879552802921 0.7479626116422797
2.35E9 0.454862007937461 0.6556148748233581
2.4E9 0.5975081213977393 0.5254976418057166
2.45E9 0.7044853515609066 0.3653835132948921
2.5E9 0.7697601381185518 0.184736846521788
2.55E9 0.7897410226353977 -0.005838717427319515
2.6E9 0.7634730064636056 -0.19521430228054582
2.65E9 0.6926815356937279 -0.3723769649253564
2.7E9 0.5816641800308088 -0.527062269677975
2.75E9 0.43703621344192123 -0.6503430537585818
2.8E9 0.2673441797907383 -0.7351414106313041
2.85E9 0.08256880312691983 -0.776634849000283
2.9E9 -0.10645506846034128 -0.7725331041325681
2.95E9 -0.28866877258335005 -0.7232090094203618
3.0E9 -0.4534343149661977 -0.6316749107958018
3.05E9 -0.5911555399129756 -0.5034049471964138
3.1E9 -0.6938392895389728 -0.346012642085212
3.15E9 -0.7555629211135637 -0.16880208342092215
3.2E9 -0.7728198310236278 0.017781102670113538
3.25E9 -0.7447218620510528 0.20276635589108438
3.3E9 -0.6730462029296128 0.37530533423080675
3.35E9 -0.5621240275073246 0.5253105801639393
3.4E9 -0.41857797048996004 0.6440472326637954
3.45E9 -0.250924877809619 0.7246424135544849
3.5E9 -0.06906843359928257 0.7624822857492799
3.55E9 0.11628729674196236 0.7554739836882399
3.6E9 0.2942680377986266 0.7041580880336498
3.65E9 0.45446578777307034 0.6116664335795832
3.7E9 0.5875444817499637 0.48352918425041563
3.75E9 0.6857801162998332 0.32734372684474505
3.8E9 0.7435049031023357 0.1523255686604104
3.85E9 0.7574308307499114 -0.031232271037196453
3.9E9 0.7268349738738732 -0.21256014433587606
3.95E9 0.6535966191632501 -0.3810386661081846
4.0E9 0.5420844137640449 -0.5268160895736541
4.05E9 0.3988999326615648 -0.6413811832809517
4.1E9 0.23249196410709896 -0.7180589460891406
4.15E9 0.05266307823044976 -0.752400530665311
4.2E9 -0.13000368348705535 -0.7424443758571393
4.25E9 -0.30476524253032 -0.6888325803715903
4.3E9 -0.4613500696600591 -0.5947746961259472
4.35E9 -0.5905637341266946 -0.4658599847837004
4.4E9 -0.684832216051984 -0.3097282678523476
4.45E9 -0.7386500519394115 -0.13561823207260065
4.5E9 -0.7489058372656848 0.04618018581219859
4.55E9 -0.715064965855372 0.22493650822900513
4.6E9 -0.6391982806977601 0.3901165519768097
4.65E9 -0.5258549365302877 0.5320066920510221
4.7E9 -0.38178753342634036 0.6422876920253451
4.75E9 -0.21554675866138348 0.7145235729464736
4.8E9 -0.036970715627478515 0.7445365485485294
4.85E9 0.14339970758358442 0.7306463795615196
4.9E9 0.3149440317949257 0.6737610223752426
4.95E9 0.4675867973628764 0.5773145432324525
5.0E9 0.5923869840342473 0.44705732691406663
5.05E9 0.6820582846190306 0.2907120825251319
5.1E9 0.731390760837552 0.11751659196665581
5.15E9 0.7375503730960571 -0.0623197743027416
5.2E9 0.7002399388309812 -0.23821426022231137
5.25E9 0.6217128556305994 -0.39982936606818464
5.3E9 0.5066390582956978 -0.5376766722717155
5.35E9 0.3618308095745153 -0.6436714114554332
5.4E9 0.1958437050842143 -0.7116059488524854
5.45E9 0.018475353240312842 -0.7375146194366841
5.5E9 -0.15980978638801757 -0.7199082177283216
5.55E9 -0.328496314869718 -0.6598636310723537
5.6E9 -0.4776386061031369 -0.5609623414532818
5.65E9 -0.5984495402945242 -0.4290803825797781
5.7E9 -0.6838218610963033 -0.2720413184626979
5.75E9 -0.7287503934833107 -0.09915232616141063
5.8E9 -0.7306291186028714 0.07934908759839326
5.85E9 -0.6894046722142492 0.25290440100565575
5.9E9 -0.6075767285144971 0.4112623969767068
5.95E9 -0.49004532949059 0.5450882000009661
6.0E9 -0.3438148234916238 0.6465160218283881
6.05E9 -0.1775729840547216 0.7096123272161297
6.1E9 -0.0011714594502404197 0.7307219823123188
6.15E9 0.17496054451825388 0.7086774588173218
6.2E9 0.3404338470697681 0.644859756943909
6.25E9 0.48551132987601753 0.5431087582889622
6.3E9 0.6016785571171308 0.40948962696070174
6.35E9 0.6821401007828641 0.25193011594283493
6.4E9 0.7222134484673742 0.07975078030271984
6.45E9 0.7195985273101375 -0.09688416377129647
6.5E9 0.6745080541124886 -0.2675634724619625
6.55E9 0.5896517385856604 -0.4222387504528109
6.6E9 0.47007545832965825 -0.5518127184396463
6.65E9 0.32286453784636626 -0.6486722075900286
6.7E9 0.1567278524078587 -0.7071351493571968
6.75E9 -0.01851370871380187 -0.7237854172714657
6.8E9 -0.19250520039426178 -0.697675468983319
6.85E9 -0.3549685742688004 -0.6303840996373186
6.9E9 -0.49631078804347317 -0.5259249239381297
6.95E9 -0.6081928752776339 -0.3905100247062281
7.0E9 -0.684025623971459 -0.23218202012380412
7.05E9 -0.7193615659297987 -0.06033602892235954
7.1E9 -0.7121590753476563 0.11483994200822095
7.15E9 -0.66290216740807 0.28297234689553935
7.2E9 -0.5745685649744566 0.434120195692247
7.25E9 -0.45244813025652636 0.5593661876098539
7.3E9 -0.30382314445581077 0.651344966077827
7.35E9 -0.1375304790151768 0.7046767254143158
7.4E9 0.03656716332899208 0.7162805657247397
7.45E9 0.20816851145391554 0.6855496843323142
7.5E9 0.367143989175872 0.614379123269486
7.55E9 0.5041326667958224 0.5070457491655257
7.6E9 0.611090974277333 0.3699488424269196
7.65E9 0.6817616158209376 0.2112276130722083
7.7E9 0.712036162857557 0.04027874120824079
7.75E9 0.7001911472513584 -0.13279762760514444
7.8E9 0.6469847477240833 -0.2977913045006151
7.85E9 0.5556089839454394 -0.4449808095932597
7.9E9 0.43150034243647345 -0.5657031833444516
7.95E9 0.2820196067320227 -0.6528621674073242
8.0E9 0.11601900639712036 -0.7013453563411529
8.05E9 -0.05667871118197798 -0.7083258162543968
8.1E9 -0.2258593935724 -0.6734299942689237
8.15E9 -0.3815211364962813 -0.5987612513412468
8.2E9 -0.5144669192341562 -0.4887766928474062
8.25E9 -0.616850815444478 -0.3500237014487496
8.3E9 -0.6826447051473665 -0.19075116708595646
8.35E9 -0.7079968940426332 -0.02041828194815895
8.4E9 -0.6914604694112594 0.1508696533991526
8.45E9 -0.6340772072602134 0.31296419918630314
8.5E9 -0.5393118598046702 0.456278745798415
8.55E9 -0.41284105482682326 0.5723585746374406
8.6E9 -0.26221014367310824 0.6543814156051364
8.65E9 -0.09637948440638855 0.6975584796795853
8.7E9 0.07481172290097238 0.6994124058470628
8.75E9 0.2412312373635288 0.6599163997148016
8.8E9 0.3930538847724499 0.5814874682822041
8.85E9 0.5213403555111867 0.46883546930545583
8.9E9 0.6185609181255445 0.3286781344116306
8.95E9 0.6790340067512279 0.16933981600205072
9.0E9 0.699254944006454 2.5807795229909505E-4
9.05E9 0.6780965685919065 -0.16857286310391695
9.1E9 0.6168708700002246 -0.3271895999738058
9.15E9 0.5192485202133484 -0.46624414807711273
9.2E9 0.3910410772981333 -0.5775522072699969
9.25E9 0.23985827313180386 -0.6545735528516147
9.3E9 0.07465984611997367 -0.6927966822519589
9.35E9 -0.09477250180357633 -0.6900050307497212
9.4E9 -0.2584125955735214 -0.6464086079503014
9.45E9 -0.406583038550329 -0.5646325241325941
9.5E9 -0.5305291496711764 -0.449562205784971
9.55E9 -0.6229391869528451 -0.30805368436922087
9.6E9 -0.6783792780872077 -0.14852564960522843
9.65E9 -0.6936163686893041 0.019542580747207067
9.7E9 -0.6678092144993443 0.18617696315653415
9.75E9 -0.6025555742180627 0.34150411351711235
9.8E9 -0.501792752944861 0.4763398391387151
9.85E9 -0.37155785921411866 0.5827349364595944
9.9E9 -0.21962290095258094 0.654445201100926
9.95E9 -0.05502752927895465 0.6872975678283646
1.0E10 0.11246167866741336 0.679431011976627
1000000000 0.2747596679036672 0.8580403044299167
1050000000 0.47226486787317196 0.7599316026887222
1100000000 0.6386581764172163 0.617971893597731
1150000000 0.7646731732956931 0.4413200621730103
1200000000 0.8435849771946583 0.24095586671747182
1250000000 0.8715281774635621 0.02901312073773185
1300000000 0.8476503041423552 -0.18193118278142784
1350000000 0.7740979977922979 -0.3795742787869514
1400000000 0.6558407082913551 -0.5525748249895613
1450000000 0.5003441303059895 -0.6911752504576661
1500000000 0.3171124715607821 -0.7877280632412443
1550000000 0.11712483936842695 -0.8370996442891165
1600000000 -0.08780370792400127 -0.8369310074880784
1650000000 -0.2857018485538996 -0.7877420950471637
1700000000 -0.4651253130089365 -0.692874211872153
1750000000 -0.6158060405125246 -0.5582738601282257
1800000000 -0.7292307774754311 -0.39213007045523507
1850000000 -0.7991162702710852 -0.20438579753951822
1900000000 -0.8217538469883373 -0.0061514645214085185
1950000000 -0.796203657474034 0.1909452745767698
2000000000 -0.724327706026834 0.37543552842027383
2050000000 -0.6106604749249382 0.5366713124341301
2100000000 -0.4621257159321479 0.6654351902198802
2.15E9 -0.28761717770392375 0.7544621812345728
2.2E9 -0.09746899334637345 0.7988443225667096
2.25E9 0.09715234964189037 0.7962956421199787
2.3E9 0.28489844968653133 0.7472638556687734
2.35E9 0.4548940278279858 0.6548842255750018
2.4E9 0.5973592030696097 0.524780112989957
2.45E9 0.7041641989488565 0.3647232828291533
2.5E9 0.7692860393140066 0.18417454653035584
2.55E9 0.789142628616003 -0.006268471891422155
2.6E9 0.7627865530981176 -0.19548500210128347
2.65E9 0.6919486203220568 -0.3724717943362117
2.7E9 0.5809292275212069 -0.5269751030989092
2.75E9 0.43634378280583574 -0.6500788073630899
2.8E9 0.2667362706637505 -0.7347157306964779
2.85E9 0.08208232121007325 -0.7760731570126893
2.9E9 -0.10679053675789803 -0.7718690557582616
2.95E9 -0.2888327433571977 -0.7224824589562782
3.0E9 -0.4534166403447361 -0.6309295026318991
3.05E9 -0.5909570165202694 -0.5026854791332097
3.1E9 -0.6934716041240959 -0.34536236030496764
3.15E9 -0.7550479362012832 -0.16826007413569657
3.2E9 -0.772188254587866 0.01818226523670818
3.25E9 -0.7440113839197601 0.2030025613054953
3.3E9 -0.6722992141013995 0.3753623689416262
3.35E9 -0.5613850642956968 0.5251849566905772
3.4E9 -0.4178910415461905 0.6437463682642138
3.45E9 -0.25033083757440616 0.7241841529779296
3.5E9 -0.06860256040590791 0.7618938033484106
3.55E9 0.11659737486856887 0.7547901374855417
3.6E9 0.29440395041362083 0.7034193300058074
3.65E9 0.4544194732780582 0.6109164045594138
3.7E9 0.5873186278380261 0.4828121375501752
3.75E9 0.6853879709398687 0.3267019315448509
3.8E9 0.7429694732570451 0.15179684177136965
3.85E9 0.7567835197384771 -0.03161676400273737
3.9E9 0.7261137384190595 -0.2127776974270013
3.95E9 0.6528437525485974 -0.3810763492357949
4.0E9 0.5413440812518786 -0.5266714998342947
4.05E9 0.3982155986687394 -0.6410625889164154
4.1E9 0.231903857012194 -0.7175848137610695
4.15E9 0.05220583765730034 -0.7517984607249425
4.2E9 -0.13030304075147578 -0.7417495037164619
4.25E9 -0.3048889182478724 -0.68808553319137
4.3E9 -0.46129054535893244 -0.5940192210260663
4.35E9 -0.5903242317202876 -0.4651403858074746
4.4E9 -0.6844265266967335 -0.3090868022521111
4.45E9 -0.7381017397589504 -0.1350926208776992
4.5E9 -0.7482468628976326 0.04655898339866393
4.55E9 -0.7143338108382127 0.22514612216936275
4.6E9 -0.6384376849547637 0.39014452013466955
4.65E9 -0.5251093852244767 0.5318511914611924
4.7E9 -0.3811006445126589 0.6419576403477731
4.75E9 -0.2149587275413367 0.7140380967478319
4.8E9 -0.036515968277386436 0.7439238536199397
4.85E9 0.14369451611610345 0.7299420940078456
4.9E9 0.31506155912868117 0.6730061134234588
4.95E9 0.46752001002101057 0.5765529319869366
5.0E9 0.592139555218186 0.4463333405724792
5.05E9 0.681644375134038 0.2900678905415617
5.1E9 0.7308341993611607 0.11698977146539008
5.15E9 0.7368832847352735 -0.0626984074056434
5.2E9 0.6995009004165521 -0.23842243346488795
5.25E9 0.6209446813803781 -0.3998546465963851
5.3E9 0.5058863393147218 -0.537517203638117
5.35E9 0.3611373444499288 -0.6433360477288425
5.4E9 0.1952499658552924 -0.7111137751611427
5.45E9 0.018016130762399742 -0.7368938817328609
5.5E9 -0.16010742155826066 -0.7191947178923952
5.55E9 -0.32861461559826666 -0.6590986748004701
5.6E9 -0.4775702183413253 -0.5601903537719511
5.65E9 -0.5981979714127329 -0.4283463274320406
5.7E9 -0.6834013136902064 -0.27138807287369987
5.75E9 -0.728184969319879 -0.09861816455722577
5.8E9 -0.7299514358919047 0.07973274804814495
5.85E9 -0.6886539759086858 0.2531148576616224
5.9E9 -0.6067966051931077 0.4112870089690625
5.95E9 -0.4892811631098468 0.5449251439592228
6.0E9 -0.3431111441300039 0.6461744111561822
6.05E9 -0.1769708676479489 0.7091116891347323
6.1E9 -7.061321975408319E-4 0.7300911258989325
6.15E9 0.1752617572614087 0.7079528034282703
6.2E9 0.3405531096913745 0.6440832214308488
6.25E9 0.48544133393306715 0.5423253356180965
6.3E9 0.6014229508478789 0.4087447851268022
6.35E9 0.6817132892100087 0.25126717401951043
6.4E9 0.7216397777843135 0.0792084081544337
6.45E9 0.7189109008610676 -0.09727418170743302
6.5E9 0.6737460578619644 -0.26777808399399977
6.55E9 0.5888593803503941 -0.4222649890071608
6.6E9 0.46929864615425476 -0.5516484853121333
6.65E9 0.32214843787685904 -0.6483264358618529
6.7E9 0.15611427471284803 -0.7066273355629218
6.75E9 -0.018988747394548255 -0.7231445417337803
6.8E9 -0.1928135954283711 -0.6969383604288495
6.85E9 -0.35509180743170793 -0.6295933324999762
6.9E9 -0.4962410547261147 -0.525126365646314
6.95E9 -0.6079335922784568 -0.3897501732109996
7.0E9 -0.6835912813761745 -0.23150528707433918
7.05E9 -0.718776925781368 -0.0597821297738692
7.1E9 -0.711457759900405 0.11523833399913647
7.15E9 -0.6621247178842377 0.283191540419375
7.2E9 -0.5737600850989709 0.43414689665716577
7.25E9 -0.4516556549564751 0.5591983037549898
7.3E9 -0.3030928910062796 0.6509917524612068
7.35E9 -0.136905144547222 0.7041582628499358
7.4E9 0.03705089800574921 0.7156266047959672
7.45E9 0.2084821256117113 0.6847979253170928
7.5E9 0.3672687899076625 0.6135730348647176
7.55E9 0.5040608863364693 0.5062320544617145
7.6E9 0.6108262363193533 0.3691748180681433
7.65E9 0.6813187465605108 0.2105383563594977
7.7E9 0.7114403591261788 0.03971456019063289
7.75E9 0.6994765493445968 -0.13320355387086688
7.8E9 0.6461924967946211 -0.2980148636397219
7.85E9 0.5547848718108709 -0.44500838147087507
7.9E9 0.4306921842095438 -0.5655324708015617
7.95E9 0.28127448289645457 -0.652502381232575
8.0E9 0.11538052987740795 -0.7008167385333405
8.05E9 -0.05717294643802262 -0.7076585222840813
8.1E9 -0.22618003348076174 -0.6726623917113254
8.15E9 -0.3816488243402345 -0.5979377269575169
8.2E9 -0.5143934813781916 -0.4879450907948643
8.25E9 -0.6165797987345671 -0.3492325396375823
8.3E9 -0.6821912271382623 -0.19004679479547948
8.35E9 -0.7073868084958908 -0.019842148052130568
8.4E9 -0.6907288916834071 0.15128345671021676
8.45E9 -0.6332664843168501 0.31319096767066523
8.5E9 -0.5384691046552986 0.4563046452357229
8.55E9 -0.4120153925819178 0.5721814832050569
8.6E9 -0.26144983417265344 0.6540110756262417
8.65E9 -0.09572909330635966 0.6970159503566397
8.7E9 0.07531393680977293 0.6987288511089802
8.75E9 0.24155556535873385 0.6591312848701727
8.8E9 0.393180912193974 0.5806462733240814
8.85E9 0.5212621074130713 0.4679870535914308
8.9E9 0.6182813429125051 0.3278719058554258
8.95E9 0.67856877220371 0.1686228672983599
9.0E9 0.6986305586240601 -3.2754722480967817E-4
9.05E9 0.6773488783094681 -0.168992619173957
9.1E9 0.6160430143639624 -0.3274184650411633
9.15E9 0.5183884616786456 -0.4662681102567439
9.2E9 0.39019884119951503 -0.5773691248424512
9.25E9 0.23908305298843616 -0.6541933349709037
9.3E9 0.07399713835651021 -0.6922407739489872
9.35E9 -0.09528356874706567 -0.6893052248138591
9.4E9 -0.2587415809230219 -0.6456052450642611
9.45E9 -0.40671001817781866 -0.5637721792700642
9.5E9 -0.5304459410459635 -0.44869499107052874
9.55E9 -0.6226498906918959 -0.30723032401999184
9.6E9 -0.6779000967135316 -0.14779449917216142
9.65E9 -0.6929747069033539 0.020138392529229682
9.7E9 -0.6670421096978081 0.18660209685881196
9.75E9 -0.6017075480642083 0.3417331295207957
9.8E9 -0.5009132113662663 0.476358726954783
9.85E9 -0.3706981965605989 0.5825419695073465
9.9E9 -0.21883348218515 0.6540510653578062
9.95E9 -0.05435473076783453 0.6867247575816243
1.0E10 0.11297819401016139 0.6787125304615128
1000000000 0.2749253290341979 0.8578283282127531
1050000000 0.472371184614439 0.7596774781865266
1100000000 0.6386947545454142 0.6176928727839957
1150000000 0.7646347445236149 0.44103575688652247
1200000000 0.8434718405298445 0.24068672723957707
1250000000 0.8713462017710207 0.028778873302859134
1300000000 0.8474105083225795 -0.1821130210016032
1350000000 0.7738157531809883 -0.37968970094475746
1400000000 0.6555346317834907 -0.5526143632337355
1450000000 0.5000347552584877 -0.6911346657092345
1500000000 0.31682079551290043 -0.787608655416103
1550000000 0.11687085237833568 -0.8369081695455993
1600000000 -0.08800241228012454 -0.8366792156607041
1650000000 -0.28583128582517886 -0.7874459254060472
1700000000 -0.4651760640624269 -0.6925527071278688
1750000000 -0.6157738897200309 -0.557947876344527
1800000000 -0.729116993686529 -0.39182087298646134
1850000000 -0.7989275160526965 -0.2041136394473272
1900000000 -0.8215017270213478 -0.005934243623433418
1950000000 -0.795903941340077 0.19109319076980408
2000000000 -0.7239992821078748 0.37550423364791113
2050000000 -0.6103241091997575 0.536655990386862
2100000000 -0.46180270089886694 0.6653364045327059
2.15E9 -0.2873279618966943 0.7542858138235377
2.2E9 -0.09723188062383414 0.798601170978537
2.25E9 0.09732234893566911 0.7960007083783408
2.3E9 0.28499054589398404 0.7469353779036326
2.35E9 0.4549023038326556 0.6545425182691804
2.4E9 0.5972829558901348 0.5244462914041194
2.45E9 0.7040079559581198 0.3644179519045536
2.5E9 0.7690592538550732 0.1839165342917706
2.55E9 0.7888590783541357 -0.006463261050787996
2.6E9 0.76246348114747 -0.19560454763312662
2.65E9 0.6916056730762112 -0.3725086785105221
2.7E9 0.5805872538561859 -0.5269269486049082
2.75E9 0.4360235665026009 -0.6499484097098864
2.8E9 0.26645727123674856 -0.7345108791464653
2.85E9 0.08186149767016443 -0.7758061555855799
2.9E9 -0.10693974933224287 -0.7715559732096939
2.95E9 -0.2889012433126994 -0.722142152628694
3.0E9 -0.4534002061380733 -0.6305824747607018
3.05E9 -0.5908565573189819 -0.5023526346700334
3.1E9 -0.6932930988563836 -0.3450637418026594
3.15E9 -0.7548020648071696 -0.1680136510110508
3.2E9 -0.7718897443948046 0.018361678790126106
3.25E9 -0.7436781120399232 0.2031041935612398
3.3E9 -0.6719511220288412 0.37538012925142494
3.35E9 -0.5610429524419112 0.5251177876550828
3.4E9 -0.4175753184208213 0.6435982920248132
3.45E9 -0.25006030020316816 0.7239640115973336
3.5E9 -0.06839327953790982 0.7616147121639506
3.55E9 0.11673299905793044 0.7544686876254755
3.6E9 0.29445790793232157 0.7030745906383586
3.65E9 0.45438859963218 0.610568786300048
3.7E9 0.5872047717256639 0.4824821852081316
3.75E9 0.6851978680124304 0.32640911700787734
3.8E9 0.7427143363602625 0.15155842640920544
3.85E9 0.7564783716536383 -0.03178673309719301
3.9E9 0.7257765269154582 -0.21286920135350132
3.95E9 0.652494299018623 -0.3810839762571909
4.0E9 0.5410029229372985 -0.5265947573835561
4.05E9 0.3979027901754538 -0.6409059311959538
4.1E9 0.23163779919339245 -0.7173573830404424
4.15E9 0.05200220089368131 -0.7515135562481783
4.2E9 -0.13043223652883232 -0.7414238075572506
4.25E9 -0.30493601259383496 -0.6877381365713271
4.3E9 -0.461252692703937 -0.5936705067528754
4.35E9 -0.590203574735311 -0.464810831723314
4.4E9 -0.6842300757105696 -0.3087957761804697
4.45E9 -0.7378409639814234 -0.13485723888652973
4.5E9 -0.7479370168581588 0.046724866748038475
4.55E9 -0.7139930359545726 0.22523273060499494
4.6E9 -0.6380859402019166 0.39014673026195024
4.65E9 -0.5247672714606278 0.5317688308970274
4.7E9 -0.38078819333846736 0.6417954924298619
4.75E9 -0.21469422723986142 0.7138056129523405
4.8E9 -0.036314896338246964 0.7436345926454887
4.85E9 0.1438203917099866 0.7296129226664836
4.9E9 0.31510485865428906 0.6726562180902543
4.95E9 0.46747816333399844 0.5762026995991237
5.0E9 0.5920149435483083 0.4460031746781102
5.05E9 0.681444187478737 0.28977703046913017
5.1E9 0.7305700135237804 0.11675518151092197
5.15E9 0.7365703980581131 -0.0628630165531404
5.2E9 0.6991574486218511 -0.23850739660772194
5.25E9 0.6205905951553441 -0.3998549051136495
5.3E9 0.5055421969696416 -0.5374326041685847
5.35E9 0.36082318477481795 -0.6431713609062056
5.4E9 0.1949841279407064 -0.7108784319813618
5.45E9 0.017814186802680255 -0.7366014406451229
5.5E9 -0.16023357872346491 -0.7188620909439057
5.55E9 -0.3286574762541312 -0.6587451553034236
5.6E9 -0.47752710813500354 -0.5598365001617112
5.65E9 -0.5980712232404317 -0.428012767400092
5.7E9 -0.6831981466769094 -0.27109429765701815
5.75E9 -0.7279170798156205 -0.09838138494130683
5.8E9 -0.7296343230853686 0.07989861535913602
5.85E9 -0.6883060411838526 0.25320001200957415
5.9E9 -0.6064380785637067 0.41128634622024784
5.95E9 -0.4889329208761621 0.5448385604814513
6.0E9 -0.34279348850949565 0.6460068133673662
6.05E9 -0.1767023411049598 0.7088727088154445
6.1E9 -5.024364915286128E-4 0.7297945593067858
6.15E9 0.1753886743176361 0.707615808605865
6.2E9 0.3405957474989283 0.6437253219581953
6.25E9 0.4853970736694391 0.5419672896398303
6.3E9 0.6012942079526739 0.4084073853551406
6.35E9 0.6815073766180767 0.2509700474200608
6.4E9 0.7213684888827991 0.07896888320587837
6.45E9 0.7185898364056691 -0.09744207660582531
6.5E9 0.6733937348560336 -0.2678644349144245
6.55E9 0.588496172574547 -0.42226457787374977
6.6E9 0.4689456152286116 -0.5515611049197925
6.65E9 0.32182612002228694 -0.6481569194616641
6.7E9 0.15584149147678375 -0.70638529731333
6.75E9 -0.019195986593068783 -0.7228438403001034
6.8E9 -0.19294303512842959 -0.6965963137540859
6.85E9 -0.3551356762556534 -0.6292297264925517
6.9E9 -0.4961965389316664 -0.5247623123270765
6.95E9 -0.6078030222003582 -0.38940688379057553
7.0E9 -0.6833820168347915 -0.23120283172856695
7.05E9 -0.7185009446118995 -0.05953825782508198
7.1E9 -0.7111309719865923 0.11540924247682677
7.15E9 -0.6617660442501294 0.28327932794081995
7.2E9 -0.5733903564231693 0.4341462346129535
7.25E9 -0.45129639520853476 0.5591090147810733
7.3E9 -0.3027650589593016 0.6508188295500237
7.35E9 -0.1366279081845809 0.7039115845333268
7.4E9 0.03726128169757725 0.7153203641560109
7.45E9 0.20861325999977043 0.6844498075660389
7.5E9 0.36731286261105256 0.613203192690186
7.55E9 0.5040151268647781 0.5058619414737267
7.6E9 0.6106930824183743 0.36882594804163016
7.65E9 0.6811057109437354 0.21023105933892935
7.7E9 0.7111596050021949 0.039466805994854595
7.75E9 0.6991441991004888 -0.1333771984638442
7.8E9 0.6458277126153288 -0.2981040852818242
7.85E9 0.5544087593847102 -0.44500772994066273
7.9E9 0.4303265804658505 -0.5654416926160301
7.95E9 0.28094069551583284 -0.6523264565813751
8.0E9 0.11509809976511623 -0.7005656170240575
8.05E9 -0.05738738875060108 -0.707346569723528
8.1E9 -0.22631375063873396 -0.6723075767151343
8.15E9 -0.3816937352624207 -0.5975605916911584
8.2E9 -0.5143466574632101 -0.48756756364975024
8.25E9 -0.6164436609134568 -0.34887665815607294
8.3E9 -0.6819734289703903 -0.18973341380256784
8.35E9 -0.7070998094068935 -0.019589710066699958
8.4E9 -0.6903892435703315 0.15146001451901145
8.45E9 -0.6328938727238262 0.31328110341430304
8.5E9 -0.5380852012293524 0.45630284470956717
8.55E9 -0.4116425873835084 0.5720875961829724
8.6E9 -0.26110992379227665 0.6538303357569287
8.65E9 -0.09544200313852809 0.6967586778711947
8.7E9 0.07553132042735378 0.698409856810243
8.75E9 0.24169038471397233 0.6587690116052549
8.8E9 0.3932250923822876 0.5802617262611983
8.85E9 0.5212128323987107 0.4676025823036188
8.9E9 0.6181412272141498 0.327509908944417
8.95E9 0.678345719396425 0.1683044939046283
9.0E9 0.6983373153957662 -5.836252006517039E-4
9.05E9 0.677002309517361 -0.16917129466119887
9.1E9 0.6156631397310272 -0.3275090816247746
9.15E9 0.5179973077970822 -0.46626509560265444
9.2E9 0.38981917284658646 -0.5772723346418586
9.25E9 0.23873705494854802 -0.6540080858902206
9.3E9 0.07370512255996733 -0.6919775610590829
9.35E9 -0.09550435624257343 -0.6889791366249788
9.4E9 -0.25887798294465886 -0.6452351067570232
9.45E9 -0.406753757813212 -0.5633794710520357
9.5E9 -0.5303941321899303 -0.4483026027300424
9.55E9 -0.6225052344149749 -0.3068612177052019
9.6E9 -0.6776707485592214 -0.1474703592460233
9.65E9 -0.6926738201438902 0.020398441693621677
9.7E9 -0.6666870796585903 0.18678262745756022
9.75E9 -0.6013190014157315 0.34182333188051617
9.8E9 -0.5005138004081768 0.4763530596677704
9.85E9 -0.3703112707687988 0.582440498440407
9.9E9 -0.21848171678531375 0.6538594711378283
9.95E9 -0.05405879437649457 0.6864540115838761
1.0E10 0.11320085362080796 0.6783782594585515
1000000000 0.27491441074494355 0.8578457609248981
1050000000 0.47236522060855307 0.7596976626437855
1100000000 0.6386944043682523 0.6177143560473364
1150000000 0.7646402349950563 0.4410569461210921
1200000000 0.8434829439609747 0.2407060180898379
1250000000 0.8713622517287569 0.02879477825115271
1300000000 0.8474304508040753 -0.18210175543532925
1350000000 0.7738382274652807 -0.3796839974821891
1400000000 0.6555580732732236 -0.5526147440939801
1450000000 0.5000575119008301 -0.6911412138183141
1500000000 0.31684124921649437 -0.787621008316226
1550000000 0.11688753674369289 -0.8369255458222506
1600000000 -0.08799070629048665 -0.8367004714981445
1650000000 -0.2858254236135173 -0.787469636778615
1700000000 -0.465176506550281 -0.6925772713601355
1750000000 -0.6157806618381509 -0.5579716254504289
1800000000 -0.7291296839933556 -0.39184219053267744
1850000000 -0.798945307002502 -0.20413107257350377
1900000000 -0.8215234531937203 -0.0059466024717258915
1950000000 -0.7959281710954742 0.19108675297953864
2000000000 -0.7240244165475069 0.3755041651028039
2050000000 -0.610348491287072 0.536662313048624
2100000000 -0.4618247270743046 0.6653487157535152
2.15E9 -0.287346188520438 0.7543033165051215
2.2E9 -0.09724511825536092 0.798622729583961
2.25E9 0.09731495950886036 0.7960249265329417
2.3E9 0.28498948043188616 0.7469606919406347
2.35E9 0.45490762719241556 0.6545673002521285
2.4E9 0.5972943215121068 0.5244689547591959
2.45E9 0.7040246317331011 0.3644370528504056
2.5E9 0.7690801721367848 0.1839308627739772
2.55E9 0.7888829065251827 -0.006454606382160319
2.6E9 0.7624887079905673 -0.19560210478095308
2.65E9 0.6916307053646215 -0.37251259083198596
2.7E9 0.5806105171175887 -0.5269369584443802
2.75E9 0.43604360370395717 -0.6499638771027407
2.8E9 0.2664728334096463 -0.7345308241463595
2.85E9 0.0818716209250404 -0.7758293214839708
2.9E9 -0.10693568502337705 -0.7715809065844487
2.95E9 -0.28890347711964165 -0.7221672951995873
3.0E9 -0.4534085833735939 -0.6306062612757899
3.05E9 -0.5908705411324243 -0.5023735906888233
3.1E9 -0.6933118057894959 -0.34508057522314506
3.15E9 -0.7548243218354116 -0.16802533162022443
3.2E9 -0.7719141637329356 0.01835585671644216
3.25E9 -0.743703178829227 0.20310456945306204
3.3E9 -0.6719752892479135 0.3753866576649127
3.35E9 -0.5610647369546354 0.5251300438933945
3.4E9 -0.4175933921007989 0.6436155012768933
3.45E9 -0.2500735704903629 0.7239850994535649
3.5E9 -0.06840095454781317 0.7616383730475595
3.55E9 0.11673136461732643 0.7544934666004841
3.6E9 0.29446238855218265 0.7030989733616013
3.65E9 0.4543988975894969 0.6105912915057111
3.7E9 0.5872202381532768 0.4825014541155607
3.75E9 0.6852175448239781 0.326423994368003
3.8E9 0.7427370162259135 0.15156802852729465
3.85E9 0.7565026722417202 -0.031782967174753055
3.9E9 0.7258009748870035 -0.21287147827583694
3.95E9 0.6525174187809356 -0.38109213804458425
4.0E9 0.5410233249565736 -0.5266082927848299
4.05E9 0.39791925371282616 -0.6409240079200699
4.1E9 0.23164934467163312 -0.7173788988939016
4.15E9 0.05200814766197653 -0.7515372061494561
4.2E9 -0.13043223040301247 -0.7414481624536202
4.25E9 -0.3049419308792827 -0.6877617295871995
4.3E9 -0.4612641630786847 -0.5936919214305965
4.35E9 -0.5902198922801964 -0.4648287870475103
4.4E9 -0.6842502464102367 -0.30880920323772343
4.45E9 -0.737863765579805 -0.13486534449538787
4.5E9 -0.7479610733276364 0.04672255330304784
4.55E9 -0.7140169009767532 0.22523633057629475
4.6E9 -0.6381081844964547 0.39015600971785047
4.65E9 -0.5247865685769515 0.5317832165301825
4.7E9 -0.38080339868851926 0.6418141077285908
4.75E9 -0.21470444560251192 0.7138273323647166
4.8E9 -0.03631953388533873 0.7436581102417315
4.85E9 0.14382159381014645 0.729636831001314
4.9E9 0.31511181084004375 0.672679092428199
4.95E9 0.4674904349654943 0.5762231824492424
5.0E9 0.5920317902574445 0.44602005567339936
5.05E9 0.6814645967068472 0.2897893169971733
5.1E9 0.7305927654110871 0.11676215612631471
5.15E9 0.736594138041848 -0.06286175510451748
5.2E9 0.6991807674984408 -0.23851191097163515
5.25E9 0.6206121119952197 -0.3998649166779467
5.3E9 0.5055606401448609 -0.5374475102608257
5.35E9 0.3608374664796543 -0.6431902708159504
5.4E9 0.19499340792573605 -0.710900219752529
5.45E9 0.01781792163333531 -0.7366248116248975
5.5E9 -0.16023560380309193 -0.7188856582744247
5.55E9 -0.32866513477535797 -0.6587675219219814
5.6E9 -0.4775399400202178 -0.5598563415067817
5.65E9 -0.5980884622198419 -0.4280289099130736
5.7E9 -0.6832187659558712 -0.2711057883649946