% Model:              cali 3.02 0.91mm 校准-校准液.mph
% Version:            COMSOL 6.2.0.290
% Date:               Oct 2 2024, 16:45
% Table:              表格 1 - 全局计算 1
% H_TUMOR (mm)           freq (Hz)                real(emw.S11) (1)        imag(emw.S11) (1)
1000000000 0.4115787818974914 0.8371017467027395
1050000000 0.60655550409329 0.7005474901683435
1100000000 0.7592277212843709 0.5202621479949068
1150000000 0.8603156445080412 0.3087557991680164
1200000000 0.9040967017393879 0.08032870444284938
1250000000 0.888691677676659 -0.14989324487694153
1300000000 0.8161009968601509 -0.36695861604833957
1350000000 0.6919952690287489 -0.5570466448501444
1400000000 0.525284486314628 -0.708347002679134
1450000000 0.3274641939834467 -0.811797426036629
1500000000 0.11180208183367829 -0.8616061402262155
1550000000 -0.10755545521730472 -0.8555419061102185
1600000000 -0.31650237919123625 -0.7949986519199848
1650000000 -0.5018746554460969 -0.6848356372483431
1700000000 -0.6522802416723115 -0.5329962444009505
1750000000 -0.7587976451313442 -0.3499290954509503
1800000000 -0.8154938776501098 -0.14785726327853074
1850000000 -0.8197329601676385 0.0600470777785653
1900000000 -0.7722645843140367 0.26052502087168705
1950000000 -0.6770951058262678 0.44107562674559786
2000000000 -0.5411544725062082 0.5907304005105465
2050000000 -0.37378548739251133 0.7007093153165814
2100000000 -0.18609383756266135 0.7649189415664174
2.15E9 0.009794141652074907 0.7802657097272331
2.2E9 0.20151504518330052 0.7467712768909083
2.25E9 0.37724257414516454 0.6674904892139194
2.3E9 0.5264049214021055 0.5482446095844943
2.35E9 0.6403037944300092 0.39719293799382094
2.4E9 0.7126012528191986 0.22427442450159743
2.45E9 0.7396497278908399 0.040557112793463246
2.5E9 0.7206506790264847 -0.14246293542188546
2.55E9 0.6576377321743252 -0.3135702610054947
2.6E9 0.5552902738965336 -0.4625042599287326
2.65E9 0.4205928696893191 -0.5805603841053982
2.7E9 0.2623641639147799 -0.6610847415152805
2.75E9 0.09068578726295051 -0.6998353058223175
2.8E9 -0.0837330357973853 -0.6951910261883638
2.85E9 -0.2502162803250707 -0.648199178588943
2.9E9 -0.3987673888337597 -0.5624608973043793
2.95E9 -0.5206623790099892 -0.4438644594933583
3.0E9 -0.6089547763932965 -0.3001849909886563
3.05E9 -0.6588631507202329 -0.14057722074594683
3.1E9 -0.6680196707559753 0.02500582275078126
3.15E9 -0.6365670773956531 0.18643116461191997
3.2E9 -0.567101187531983 0.33400261622634714
3.25E9 -0.4644657877139429 0.45903811936002986
3.3E9 -0.33541585786885203 0.5543732963160848
3.35E9 -0.1881728486505667 0.6147623200436879
3.4E9 -0.031901718103568476 0.6371544219858047
3.45E9 0.12385671570532164 0.6208326621504576
3.5E9 0.26976296791597837 0.5674103689488533
3.55E9 0.39723113042127844 0.4806893097237408
3.6E9 0.4989243371549945 0.3663916430202787
3.65E9 0.5691660016850658 0.23178460367424858
3.7E9 0.6042450911135675 0.08522237564109503
3.75E9 0.6026003452676406 -0.06436647377779323
3.8E9 0.5648755309377446 -0.20801537867580167
3.85E9 0.49384516623589186 -0.3372487933581837
3.9E9 0.3942173196662022 -0.44457372371371007
3.95E9 0.27232677031809926 -0.5239062443433121
4.0E9 0.1357377207515775 -0.5709094627032997
4.05E9 -0.00721988681263035 -0.5832245928415795
4.1E9 -0.14795283424331435 -0.5605829854988136
4.15E9 -0.27811619369246543 -0.50479384076507
4.2E9 -0.3901039222840127 -0.419609556755586
4.25E9 -0.4774897596941372 -0.310477842887356
4.3E9 -0.5353927754869084 -0.18419641594849367
4.35E9 -0.560746569323246 -0.04849186551787791
4.4E9 -0.5524571036412694 0.08845127696109278
4.45E9 -0.511441067628671 0.2184824247913099
4.5E9 -0.44054406954222397 0.33396797829345853
4.55E9 -0.344345321610951 0.42823667434236246
4.6E9 -0.22886230972587446 0.4959611709812117
4.65E9 -0.10117477153999613 0.5334541668719208
4.7E9 0.03100822379583512 0.5388629787382222
4.75E9 0.15981143698771857 0.512252951938245
4.8E9 0.2776590561538361 0.4555769039477383
4.85E9 0.37771547564931063 0.3725345506204174
4.9E9 0.45427611897339626 0.26833213843235704
4.95E9 0.5030866391924603 0.1493579693311172
5.0E9 0.5215733839164358 0.02279390593563001
5.05E9 0.5089733503639968 -0.10381388748802334
5.1E9 0.46635767441663295 -0.22299987572093458
5.15E9 0.3965486974908274 -0.32781419049316596
5.2E9 0.30393655090416766 -0.4122230867613348
5.25E9 0.19420671800532255 -0.47145228938007677
5.3E9 0.0739949227547088 -0.5022540433230915
5.35E9 -0.04951029107726797 -0.5030830523787073
5.4E9 -0.16899400161589 -0.4741716953031485
5.45E9 -0.27744543379523723 -0.41750069430844594
5.5E9 -0.3685673882498277 -0.3366674774913713
5.55E9 -0.4371406233965974 -0.23666048194402434
5.6E9 -0.47932191290927756 -0.12355322155325542
5.65E9 -0.492858492999806 -0.004136729344978943
5.7E9 -0.4772066990187909 0.11448735094448542
5.75E9 -0.4335484508792248 0.2253284677681255
5.8E9 -0.3647054953737122 0.321918370998342
5.85E9 -0.27495752784552624 0.39868740821874865
5.9E9 -0.1697760754734544 0.4512838867429585
5.95E9 -0.05549094977235694 0.476818220326524
6.0E9 0.061090139362653596 0.47401838021823856
6.05E9 0.17308578085757667 0.4432886840387624
6.1E9 0.27394486049722266 0.3866698050946993
6.15E9 0.35782681415978035 0.30770369424150573
6.2E9 0.4199364068656511 0.2112125333594167
6.25E9 0.4567943062161341 0.10300559305604391
6.3E9 0.46642867799103294 -0.010468280195377051
6.35E9 0.4484777018156496 -0.12250203268660341
6.4E9 0.4041980228896453 -0.22652348630722693
6.45E9 0.33637945789475854 -0.3164775748966575
6.5E9 0.24917150080726744 -0.38717595792626625
6.55E9 0.14783207783264382 -0.43459417547342305
6.6E9 0.038413341616122136 -0.45609951321972275
6.65E9 -0.07259715016226434 -0.45059668018458504
6.7E9 -0.1786589582072299 -0.4185830823669857
6.75E9 -0.27356265794963974 -0.36211067174647543
6.8E9 -0.3517926339897901 -0.28465678629952434
6.85E9 -0.4088474731021558 -0.19091176168375545
6.9E9 -0.44149912352725745 -0.08649605943104838
6.95E9 -0.4479756294587738 0.022376104552008332
7.0E9 -0.42805685734377685 0.1292664250882788
7.05E9 -0.3830779178988659 0.2278932847803955
7.1E9 -0.3158406087281316 0.31250087692617395
7.15E9 -0.2304387805301513 0.37819475702146516
7.2E9 -0.13200869141586793 0.4212241220391687
7.25E9 -0.026419821048061468 0.43919453403461906
7.3E9 0.08007500406360091 0.43119917221736587
7.35E9 0.18120915913807814 0.3978617067717102
7.4E9 0.27106957534054227 0.34128920126719353
7.45E9 0.3444404895636128 0.26493873210895785
7.5E9 0.39710386760379635 0.1734063527334854
7.55E9 0.42607954790069924 0.07215136078564187
7.6E9 0.42979180752896373 -0.032827663571841935
7.65E9 0.4081533659114895 -0.1353460449444196
7.7E9 0.36256257373030576 -0.22939496024807315
7.75E9 0.2958144394515701 -0.3094913392709875
7.8E9 0.21193098075990788 -0.3709956897336641
7.85E9 0.11592091641082068 -0.4103796748117544
7.9E9 0.013482709051184117 -0.4254281195560712
7.95E9 -0.08933178012482515 -0.41536383344777045
8.0E9 -0.18647344671287627 -0.38088803399995974
8.05E9 -0.2722510997425502 -0.32413401992107893
8.1E9 -0.34166477218556335 -0.24853680964738
8.15E9 -0.3906975325380431 -0.15862643854644215
8.2E9 -0.41654853841432216 -0.05975718769715256
8.25E9 -0.4177935486806356 0.0422111016971318
8.3E9 -0.39446346863122694 0.14126055880874397
8.35E9 -0.3480364715784304 0.23157084794829474
8.4E9 -0.2813444958040349 0.30786151773325005
8.45E9 -0.19840010776449013 0.36570078043514515
8.5E9 -0.10415450481960456 0.4017625312795547
8.55E9 -0.004201492155669762 0.41401669066749724
8.6E9 0.09555464200441524 0.4018420989328772
8.65E9 0.18924748399688537 0.36605592479966803
8.7E9 0.2713925015347899 0.3088585506253836
8.75E9 0.337206631456729 0.2336978561661995
8.8E9 0.38288504821978225 0.14506144777233307
8.85E9 0.40581939486244245 0.04820942172917196
8.9E9 0.40474526932984783 -0.05113649100784549
8.95E9 0.37981088608379265 -0.14712922269318218
9.0E9 0.3325633467676589 -0.23413862841137273
9.05E9 0.2658536197957288 -0.3070799908719626
9.1E9 0.1836659135005858 -0.3617098873420222
9.15E9 0.0908814028471726 -0.3948723956812168
9.2E9 -0.007009982533161008 -0.4046814175310785
9.25E9 -0.10423298383788371 -0.3906285100662774
9.3E9 -0.19506681864432132 -0.35360986982722786
9.35E9 -0.27418147710890983 -0.295870786037983
9.4E9 -0.3369507103144713 -0.22087072092822588
9.45E9 -0.3797231819482308 -0.1330768975418236
9.5E9 -0.40003566132892826 -0.037698586542462026
9.55E9 -0.3967555588263614 0.059622101889573724
9.6E9 -0.3701443455941945 0.15314444684582665
9.65E9 -0.32183819308639827 0.237368361684818
9.7E9 -0.2547472013420272 0.30735837148109296
9.75E9 -0.17287952365738343 0.35903303297946276
9.8E9 -0.08110121112558062 0.38940270200992444
9.85E9 0.015153599199300594 0.3967417902244659
9.9E9 0.11020467789262015 0.3806857019080118
9.95E9 0.19846066087421319 0.34224722382693384
1.0E10 0.27474719406279374 0.2837519552042799
1000000000 0.4123541388377998 0.836478265147143
1050000000 0.6071618312431664 0.6997116441689194
1100000000 0.759606273853461 0.5192626042113613
1150000000 0.8604225051559461 0.3076573562508589
1200000000 0.903907085111036 0.07920756353602881
1250000000 0.8882026142635038 -0.15095531268264772
1300000000 0.8153322220273126 -0.3678804062989617
1350000000 0.6909887320032791 -0.5577537253105993
1400000000 0.5241020529043053 -0.7087779541282901
1450000000 0.3261833996495037 -0.8119091890228596
1500000000 0.11051052436408995 -0.861377815722512
1550000000 -0.10876645290898193 -0.8549768421338316
1600000000 -0.3175444333452562 -0.7941248291596608
1650000000 -0.5026689637632975 -0.6837042635876046
1700000000 -0.6527636889662491 -0.5316785228358742
1750000000 -0.7589278081465785 -0.3485113668390693
1800000000 -0.81525249112536 -0.14643494285154565
1850000000 -0.819127606629884 0.06137626698959571
1900000000 -0.7713285149057374 0.2616680250748901
1950000000 -0.6758851980507142 0.4419507553092372
2000000000 -0.5397474600883649 0.5912732379689438
2050000000 -0.3722727468248714 0.7008774058731053
2100000000 -0.18457513061533765 0.7646949114481111
2.15E9 0.011217507042499264 0.7796586242190527
2.2E9 0.20274714918961473 0.7458161591962352
2.25E9 0.37819943351267366 0.6662460549704419
2.3E9 0.527020206638156 0.5467893920668675
2.35E9 0.6405333366459814 0.39562008601351784
2.4E9 0.7124260522413327 0.2226855377820871
2.45E9 0.7390772816445385 0.039055533685133335
2.5E9 0.7197145574086523 -0.14377892951362134
2.55E9 0.656395444217014 -0.3146139212384292
2.6E9 0.5538195700165719 -0.4632060692044972
2.65E9 0.41898672640134405 -0.5808726343912668
2.7E9 0.2607247776960316 -0.6609846925212265
2.75E9 0.08911796672885669 -0.6993267228148885
2.8E9 -0.08512865168073294 -0.6943039978333521
2.85E9 -0.25134973817841155 -0.646988225993766
2.9E9 -0.3995652467784401 -0.5610014962320925
2.95E9 -0.5210724620187526 -0.4422482021239059
3.0E9 -0.6089495501580173 -0.2985137042026394
3.05E9 -0.6584414946864467 -0.13895642781857745
3.1E9 -0.6672069382397419 0.02647366655082727
3.15E9 -0.6354134459637646 0.18765321832219234
3.2E9 -0.5656784174408048 0.3349015547259895
3.25E9 -0.4628626114530552 0.4595570106035619
3.3E9 -0.33373231202216797 0.5544791475506391
3.35E9 -0.18651392414487128 0.6144480787852894
3.4E9 -0.030370742599514777 0.6364393220465328
3.45E9 0.1251645405362419 0.6197609137256039
3.5E9 0.2707664703265831 0.566048296849058
3.55E9 0.39786815359208244 0.47912113855013083
3.6E9 0.4991555095645046 0.3647142070278173
3.65E9 0.5689770769781042 0.2301013185035893
3.7E9 0.6036477313854594 0.08363684681317092
3.75E9 0.6016313159829633 -0.06575681553724065
3.8E9 0.5635943694145032 -0.20912523227635132
3.85E9 0.4923304741644643 -0.3380101774053258
3.9E9 0.39256190930970053 -0.444940094170766
3.95E9 0.27063196013729857 -0.5238552961491519
4.0E9 0.13410712588590315 -0.5704444493636327
4.05E9 -0.008686693328271922 -0.5823740856239426
4.1E9 -0.14916640459658925 -0.5593990869860517
4.15E9 -0.2790026614961441 -0.5033489611309497
4.2E9 -0.39060949692663904 -0.41799194964906
4.25E9 -0.47758398179771744 -0.3087861755012002
4.3E9 -0.5350703324867111 -0.18253370931686036
4.35E9 -0.5600275603001932 -0.04695918155216344
4.4E9 -0.5513857405077388 0.08976100889637054
4.45E9 -0.5100828990121186 0.21949005854712123
4.5E9 -0.4389819071168642 0.334612930465027
4.55E9 -0.34267412956269605 0.4284805419843143
4.6E9 -0.22718338092793644 0.495789972917701
4.65E9 -0.09958955476770637 0.5328790829045695
4.7E9 0.03240426475255429 0.5379195561210863
4.75E9 0.16093455943521812 0.5109988432356065
4.8E9 0.2784422278155514 0.4540882885705207
4.85E9 0.3781123259223259 0.37090146877070984
4.9E9 0.45426362734739634 0.26665302684100095
4.95E9 0.502666413742415 0.1477337303856437
5.0E9 0.5207714668170939 0.021321864070620103
5.05E9 0.5078385729743101 -0.10504578608733053
5.1E9 0.4649586674211788 -0.22391828154459598
5.15E9 0.3949697376943313 -0.3283646843274262
5.2E9 0.30227249204322804 -0.412373377448016
5.25E9 0.1925573051552256 -0.4711940901897353
5.3E9 0.07245882580874596 -0.5016035174944811
5.35E9 -0.050841371922692426 -0.5020798012760704
5.4E9 -0.17004080801470353 -0.4728763481739052
5.45E9 -0.27814587172089633 -0.4159912419522809
5.5E9 -0.3688802164383147 -0.33503456838426304
5.55E9 -0.4370478844503587 -0.23500196345324686
5.6E9 -0.4788299594703105 -0.12196825639298799
5.65E9 -0.4919975474069047 -0.0027198446367242245
5.7E9 -0.4760289754494698 0.11565191991611273
5.75E9 -0.4321249581681862 0.22617179558019573
5.8E9 -0.3631217202274516 0.32239091907060075
5.85E9 -0.27330826646849044 0.39876191792346716
5.9E9 -0.1681597320803766 0.4509569208458826
5.95E9 -0.05400364999130894 0.47611026962529995
6.0E9 0.06236026505412156 0.47297254062664884
6.05E9 0.17406380346773587 0.4419679955951448
6.1E9 0.27457344375233694 0.38515342305562184
6.15E9 0.3580695383437396 0.30608212902359516
6.2E9 0.4197798390068066 0.20958224724983632
6.25E9 0.4562487054927569 0.10146327507295333
6.3E9 0.46552730497613165 -0.011831425217979965
6.35E9 0.4472747801927103 -0.12360564884279424
6.4E9 0.402765478530117 -0.22730277548621133
6.45E9 0.3348026289220597 -0.3168870788871488
6.5E9 0.24754407023389807 -0.38719219624492734
6.55E9 0.1462505246507215 -0.43421698669178527
6.6E9 0.03697123443077981 -0.45535202163118493
6.65E9 -0.07381468248621577 -0.4495238888072883
6.7E9 -0.17958025302653324 -0.41724917342550705
6.75E9 -0.2741337442280427 -0.36059517238320477
6.8E9 -0.35198040416872084 -0.28304982573582504
6.85E9 -0.40864161078238503 -0.1893087019001269
6.9E9 -0.4409126706294254 -0.0849918207212434
6.95E9 -0.4470441589664996 0.02369268208581076
7.0E9 -0.42683630298803577 0.13031784463051474
7.05E9 -0.3816411945313114 0.2286179641711438
7.1E9 -0.31427323102306687 0.3128567552479672
7.15E9 -0.22883374805797702 0.3781617237936569
7.2E9 -0.13046095106195763 0.4208051298064892
7.25E9 -0.02502064064310279 0.4384153363486812
7.3E9 0.08124341521033536 0.43010671252210325
7.35E9 0.1820784658756784 0.3965212640979332
7.4E9 0.2715892889477788 0.3397804709565793
7.45E9 0.34458087021893147 0.26335107999721086
7.5E9 0.3968575956476203 0.17183352627265658
7.55E9 0.42546207531119457 0.07068596856163836
7.6E9 0.4288403774276107 -0.03409958244888111
7.65E9 0.40692476375516284 -0.13635004796086478
7.7E9 0.36112974529066477 -0.23007253638326539
7.75E9 0.2942621742547617 -0.30980330330763717
7.8E9 0.21035091224872443 -0.37092444136153435
7.85E9 0.11440612907718482 -0.4099301923714953
7.9E9 0.012122265981321156 -0.4246276303396598
7.95E9 -0.09045806995472533 -0.41426017849471136
8.0E9 -0.1872997142933855 -0.3795468213215484
8.05E9 -0.27272927815680553 -0.32263473172620205
8.1E9 -0.3417674051988895 -0.2469680920936227
8.15E9 -0.39041936141964745 -0.15708085267502347
8.2E9 -0.4159067714667061 -0.058325733976325636
8.25E9 -0.4168267973591522 0.04344435800099104
8.3E9 -0.39322941518555954 0.14222343976541862
8.35E9 -0.34660841045282836 0.23220729675927088
8.4E9 -0.27980695938118816 0.30813486282782343
8.45E9 -0.1968438418517634 0.3655958386777451
8.5E9 -0.10267109699823376 0.40128643077577486
8.55E9 -0.002877974526187011 0.4131983719289462
8.6E9 0.09664089579911828 0.40073053279044385
8.65E9 0.19003326862472517 0.3647171613344526
8.7E9 0.2718324363393556 0.30737178094542383
8.75E9 0.3372757559210648 0.232150724332899
8.8E9 0.3825802129352669 0.14354489083531313
8.85E9 0.4051593751097052 0.046812339928963394
8.9E9 0.40376960188790645 -0.05233242497258962
8.95E9 0.37857750230019094 -0.14805431670739308
9.0E9 0.3311451425599506 -0.23473921410326992
9.05E9 0.26433416282308214 -0.3073215257537989
9.1E9 0.18213453630931387 -0.36157893832243126
9.15E9 0.089427965888075 -0.3943773897111551
9.2E9 -0.008300354469949768 -0.403852115251173
9.25E9 -0.10528488538743055 -0.38951423161256105
9.3E9 -0.19581897601833875 -0.3522765745123055
9.35E9 -0.27459032852443477 -0.29439717533083515
9.4E9 -0.3369929421244572 -0.21934359287097094
9.45E9 -0.37939706888054037 -0.13158602660014698
9.5E9 -0.3993611302367314 -0.03633143264490082
9.55E9 -0.39577297208895285 0.060785540048026214
9.6E9 -0.3689120778364271 0.15403632735399297
9.65E9 -0.32042914812751744 0.2379369644052245
9.7E9 -0.25324448028905344 0.3075710980561943
9.75E9 -0.17137150560228653 0.3588782669487316
9.8E9 -0.07967634173319152 0.3888904240822889
9.85E9 0.016412000763034486 0.39590291940647365
9.9E9 0.11122328729398206 0.3795702095024829
9.95E9 0.19918040829806216 0.3409211394944356
1.0E10 0.27512667026536697 0.28229344798459854
1000000000 0.412719142244711 0.8361829932997925
1050000000 0.6074467252523341 0.6993163260564147
1100000000 0.7597833460850052 0.5187903406193286
1150000000 0.8604711115704881 0.3071388704624401
1200000000 0.9038156999674364 0.07867892209849031
1250000000 0.887970029519741 -0.15145553712853152
1300000000 0.8149678554760236 -0.3683139468225569
1350000000 0.6905124947041952 -0.5580854626017452
1400000000 0.5235433190407589 -0.708978961959672
1450000000 0.3255789173756407 -0.8119593115765533
1500000000 0.10990169913200987 -0.8612674079452628
1550000000 -0.10933653318161873 -0.8547076871465734
1600000000 -0.31803410207112565 -0.7937103162769786
1650000000 -0.5030411115523648 -0.683168745914256
1700000000 -0.652988670032589 -0.531055783397027
1750000000 -0.7589858067659292 -0.3478422903377537
1800000000 -0.8151351314751555 -0.14576462671478138
1850000000 -0.8188387203937801 0.06200170783010786
1900000000 -0.7708840409949047 0.26220474385268644
1950000000 -0.675312207944752 0.4423603315331282
2000000000 -0.5390823612422133 0.5915254671463355
2050000000 -0.3715588015454772 0.7009525008797783
2100000000 -0.18385948734937171 0.7645849576088198
2.15E9 0.011887048541871437 0.7793681980336223
2.2E9 0.20332541130302373 0.7453620802561374
2.25E9 0.37864694780881014 0.6656562966981294
2.3E9 0.5273059041467514 0.5461012335223875
2.35E9 0.640636661537236 0.39487763906673934
2.4E9 0.7123383633581174 0.22193682394609615
2.45E9 0.7388024573913903 0.03834930988978096
2.5E9 0.7192687724806387 -0.14439638588747686
2.55E9 0.6558061390449315 -0.3151018589004041
2.6E9 0.5531236840942487 -0.46353194473221637
2.65E9 0.4182283125108132 -0.5810142572118323
2.7E9 0.2599521527957247 -0.6609316956841114
2.75E9 0.08838058435432697 -0.6990812653262481
2.8E9 -0.08578340479851221 -0.6938806532928111
2.85E9 -0.2518796133186233 -0.6464130645203713
2.9E9 -0.3999358721451387 -0.5603104190165669
2.95E9 -0.5212595702820909 -0.4414846371709999
3.0E9 -0.6089405489100239 -0.2977258143905818
3.05E9 -0.6582362776244376 -0.13819401512049764
3.1E9 -0.6668178858747768 0.027162356649707394
3.15E9 -0.6348646192225778 0.1882245822207359
3.2E9 -0.5650040016582465 0.33531940466855836
3.25E9 -0.46210471784940393 0.4597948587122632
3.3E9 -0.3329382851243057 0.5545218563035039
3.35E9 -0.18573333389353763 0.6142927782796295
3.4E9 -0.02965225726011127 0.6360955440326682
3.45E9 0.12577620084443364 0.6192499438602279
3.5E9 0.27123330895567205 0.5654017961923107
3.55E9 0.398161232254145 0.4783791299549754
3.6E9 0.49925670423652524 0.3639225591077768
3.65E9 0.5688801543934716 0.22930888759269472
3.7E9 0.6033586882786626 0.08289245476376665
3.75E9 0.6011679679599435 -0.06640738317205126
3.8E9 0.5629852205998196 -0.20964202687570488
3.85E9 0.491612940538972 -0.338361519718439
3.9E9 0.39178000585076733 -0.4451044942626043
3.95E9 0.2698335928316615 -0.5238227471842988
4.0E9 0.13334115277478062 -0.5702170185765495
4.05E9 -0.009373453969478618 -0.581965767402
4.1E9 -0.1497320370722239 -0.5588349270996692
4.15E9 -0.2794127115617157 -0.5026635053472749
4.2E9 -0.3908390695511183 -0.4172271116313268
4.25E9 -0.47761924832844427 -0.3079886553176458
4.3E9 -0.534909354171225 -0.18175212249802639
4.35E9 -0.5596803778807329 -0.04624107728092272
4.4E9 -0.5508737260605264 0.09037205478095373
4.45E9 -0.5094374130486703 0.21995709511528264
4.5E9 -0.4382423479344267 0.33490786428550645
4.55E9 -0.3418854997301688 0.4285858149232833
4.6E9 -0.22639352508037788 0.4956995856783582
4.65E9 -0.09884624159686287 0.5325989071147396
4.7E9 0.033056236172310176 0.5374669227999282
4.75E9 0.1614560532194652 0.5104014402163276
4.8E9 0.27880210409213896 0.4533824409401473
4.85E9 0.37828927670750406 0.37012991219988445
4.9E9 0.4542474111127769 0.26586231193807436
4.95E9 0.5024584212887427 0.14697141565098878
5.0E9 0.5203845909100512 0.020633665066795693
5.05E9 0.5072963947288568 -0.10561872332277883
5.1E9 0.464294011463829 -0.2243418235669875
5.15E9 0.39422268389956977 -0.3286137279342334
5.2E9 0.3014879623786845 -0.41243332495621204
5.25E9 0.19178236840447893 -0.47106169673260356
5.3E9 0.07173987939712471 -0.5012870609201262
5.35E9 -0.05146137612531128 -0.5015985645586563
5.4E9 -0.17052492882271367 -0.4722594446222232
5.45E9 -0.278465381109194 -0.4152758527486892
5.5E9 -0.3690163066376271 -0.3342636976807596
5.55E9 -0.4369927762138673 -0.23422184611025787
5.6E9 -0.4785873442304842 -0.12122557531659513
5.65E9 -0.4915823368248086 -0.0020589269239102478
5.7E9 -0.47546637472726516 0.11619175728067269
5.75E9 -0.4314489214676959 0.22655858916509852
5.8E9 -0.36237288474146745 0.32260195009505577
5.85E9 -0.2725314934950389 0.39878503838388263
5.9E9 -0.16740140671113599 0.4507912378804926
5.95E9 -0.053308904314981476 0.47576615151303714
6.0E9 0.06295023762521872 0.4724709496171713
6.05E9 0.17451418289237586 0.44133919338077504
6.1E9 0.2748578244815853 0.38443513155631853
6.15E9 0.3581714596476395 0.3053172602167522
6.2E9 0.4196937188624304 0.2088163393958615
6.25E9 0.4559801281304015 0.10074178790492563
6.3E9 0.4650926499577098 -0.012465797475695265
6.35E9 0.4467002186533986 -0.1241154903591652
6.4E9 0.40208539803156373 -0.2276581424589896
6.45E9 0.33405758051738704 -0.3170672476816212
6.5E9 0.24677835826192301 -0.38718686546338993
6.55E9 0.14550958015246904 -0.43402686380239675
6.6E9 0.036298925770697286 -0.4549887600010871
6.65E9 -0.07437864399319771 -0.44900937843858935
6.7E9 -0.18000265941536658 -0.41661422645492685
6.75E9 -0.2743898497830398 -0.3598776803367849
6.8E9 -0.35205537979380797 -0.2822924974433196
6.85E9 -0.4085314063648208 -0.1885565167844439
6.9E9 -0.44062423333104495 -0.08428935007178473
6.95E9 -0.44659499447925594 0.024303924700396887
7.0E9 -0.4262534069832442 0.13080186415725575
7.05E9 -0.38095942020667606 0.2289464081017803
7.1E9 -0.31353319311378647 0.3130105739776922
7.15E9 -0.22807939162369772 0.378132269483943
7.2E9 -0.1297369329426731 0.42059463092458826
7.25E9 -0.024369681531121224 0.43803672358443113
7.3E9 0.08178305005585873 0.42958281119335484
7.35E9 0.1824752088195929 0.3958834058854977
7.4E9 0.2718201049533276 0.33906661158421986
7.45E9 0.3446325800717091 0.26260353736421627
7.5E9 0.39672761399852696 0.17109647418884918
7.55E9 0.42515852472014615 0.07000283373343505
7.6E9 0.4283815757066103 -0.034688668522503116
7.65E9 0.40633811761088645 -0.13681059496224496
7.7E9 0.36045011671834026 -0.23037770422442502
7.75E9 0.29352981572167813 -0.30993545910558024
7.8E9 0.20960909098583633 -0.37087617506164156
7.85E9 0.11369857854346535 -0.4097047325193776
7.9E9 0.011490612786240462 -0.424238635716895
7.95E9 -0.09097675336501272 -0.4137309172403625
8.0E9 -0.18767508741394767 -0.37890878486417146
8.05E9 -0.27293951187553045 -0.3219257643221005
8.1E9 -0.3418004569497283 -0.2462301459557665
8.15E9 -0.39027366961932713 -0.15635750168064744
8.2E9 -0.41559132742079996 -0.0576595940994058
8.25E9 -0.4163605904006448 0.044014147230277474
8.3E9 -0.3926402849458255 0.1426635219425196
8.35E9 -0.34593137631436033 0.23249205555833996
8.4E9 -0.27908212889979744 0.3082479130482145
8.45E9 -0.1961140251238417 0.3655309641134812
8.5E9 -0.10197927095794519 0.4010479158119606
8.55E9 -0.002264749009588485 0.41280071082785724
8.6E9 0.0971396600201837 0.40019753812606196
8.65E9 0.19038855034831262 0.36408052854447687
8.7E9 0.2720237323353471 0.3066691973780393
8.75E9 0.33729225211926367 0.23142363673216196
8.8E9 0.3824213837991334 0.14283606365497767
8.85E9 0.4048349801306758 0.046163347463614
8.9E9 0.40329908285344357 -0.052883627244248624
8.95E9 0.3779888189649343 -0.14847560178947214
9.0E9 0.3304731159196143 -0.2350061475887013
9.05E9 0.2636184227867654 -0.3074187777802185
9.1E9 0.18141719283956004 -0.36150116254733433
9.15E9 0.08875113849045509 -0.3941295187026785
9.2E9 -0.008897005564925743 -0.40344905492984307
9.25E9 -0.10576648250238226 -0.38897997190794364
9.3E9 -0.19615746560646594 -0.35164276740279465
9.35E9 -0.2747661205967611 -0.29370126293815163
9.4E9 -0.3369960501162308 -0.21862659536774323
9.45E9 -0.3792276817880659 -0.13089012056920973
9.5E9 -0.39902958261219723 -0.035697463704194674
9.55E9 -0.39529911372004894 0.061320462108098196
9.6E9 -0.36832408132513317 0.15444100744484424
9.65E9 -0.31976182671257125 0.23818794532559118
9.7E9 -0.2525372178422039 0.3076540202178552
9.75E9 -0.17066592379747192 0.3587886854603559
9.8E9 -0.07901384446820714 0.38863403732194757
9.85E9 0.016992659375081588 0.39549519896745955
9.9E9 0.11168826786993549 0.3790354572528143
9.95E9 0.19950275200288897 0.34029103115831366
1.0E10 0.2752878525181588 0.28160515215510684
1000000000 0.41269034504835034 0.8362077423541625
1050000000 0.6074246955925322 0.6993489426834155
1100000000 0.7597702145291362 0.5188289123746144
1150000000 0.8604684768728146 0.30718091877090925
1200000000 0.9038245116056545 0.07872152827928755
1250000000 0.8879903776491109 -0.15141564525306841
1300000000 0.8149987513244658 -0.3682799759769084
1350000000 0.6905521176812499 -0.5580601402776656
1400000000 0.5235892424549757 -0.7089644922046568
1450000000 0.3256281420208025 -0.8119572799878765
1500000000 0.109950770622285 -0.8612785501696248
1550000000 -0.10929121783545598 -0.8547317118730593
1600000000 -0.3179959399025629 -0.7937459263591793
1650000000 -0.5030130364940067 -0.6832137789828201
1700000000 -0.6529729745244807 -0.5311073645696303
1750000000 -0.7589839771660369 -0.34789699212323316
1800000000 -0.8151476955915755 -0.14581868759986452
1850000000 -0.8188651675103245 0.06195209708276117
1900000000 -0.770922849827848 0.2621631417418739
1950000000 -0.6753609594682489 0.44232978558987557
2000000000 -0.5391379042439733 0.5915083006177227
2050000000 -0.37161746179899613 0.700950143667565
2100000000 -0.18391731810337897 0.7645978323432483
2.15E9 0.011833989486861186 0.7793956780053042
2.2E9 0.2032807831758328 0.745402526249321
2.25E9 0.3786138712939462 0.6657071669839101
2.3E9 0.5272867457565011 0.5461592549884827
2.35E9 0.6406328698938459 0.39493902643584167
2.4E9 0.7123503669237845 0.22199753319502702
2.45E9 0.7388296307027972 0.038405309627633555
2.5E9 0.7193094735650871 -0.1443488434752111
2.55E9 0.6558578152885854 -0.3150659861935224
2.6E9 0.5531830389055857 -0.4635102026993531
2.65E9 0.4182915213727391 -0.5810081893120204
2.7E9 0.2600151144597259 -0.660941822298627
2.75E9 0.08843919075967897 -0.6991070456512739
2.8E9 -0.08573299760314423 -0.6939205173281443
2.85E9 -0.2518407312080161 -0.6464645131970834
2.9E9 -0.399911102771499 -0.5603701859326705
2.95E9 -0.5212505914736225 -0.4415489012608645
3.0E9 -0.6089480170765821 -0.2977904493848048
3.05E9 -0.6582597836104487 -0.13825485913415234
3.1E9 -0.6668559811064217 0.02710922944552162
3.15E9 -0.6349149101832371 0.18818260598866848
3.2E9 -0.5650633060693416 0.3352912993091796
3.25E9 -0.4621692717889825 0.4597824548161552
3.3E9 -0.3330039870009371 0.5545259788365275
3.35E9 -0.1857960089305939 0.6143131960520378
3.4E9 -0.0297079250421584 0.6361309875480514
3.45E9 0.12573107305924067 0.6192981895865989
3.5E9 0.2712015832135908 0.5654598110649109
3.55E9 0.39814492095154147 0.47844326619267874
3.6E9 0.49925684596890607 0.3639887864796194
3.65E9 0.5688967517335087 0.229373048203043
3.7E9 0.6033907106980575 0.08295052431839015
3.75E9 0.601213419121116 -0.06635904378943076
3.8E9 0.5630412653902681 -0.20960644510958595
3.85E9 0.4916760836971843 -0.3383409236484745
3.9E9 0.39184631101931483 -0.4451001750412215
3.95E9 0.26989892847782343 -0.5238349799082468
4.0E9 0.1334014498346873 -0.5702450463437344
4.05E9 -0.009321948621588128 -0.5820078495268896
4.1E9 -0.1496925270267866 -0.5588884485242414
4.15E9 -0.2793876517077054 -0.5027251404954857
4.2E9 -0.3908300138062186 -0.41729303251681116
4.25E9 -0.47762675387949216 -0.3080547708759127
4.3E9 -0.5349329482489583 -0.1818143340680527
4.35E9 -0.5597185891344125 -0.046295534076864674
4.4E9 -0.5509241784129678 0.09032871635918918
4.45E9 -0.509496975908817 0.21992754345533877
4.5E9 -0.43830733300159885 0.3348939088140453
4.55E9 -0.3419518917015374 0.42858829673262266
4.6E9 -0.2264572315060865 0.4957183290058761
4.65E9 -0.09890334608697895 0.5326327342145584
4.7E9 0.033009233209826586 0.5375137307099176
4.75E9 0.1614220210680827 0.5104583340444118
4.8E9 0.27878310831522696 0.45344591490968944
4.85E9 0.37828645602599914 0.37019606690152607
4.9E9 0.45426091155597814 0.26592709423544536
4.95E9 0.5024873910746323 0.14703086653926453
5.0E9 0.5204272358571206 0.020684160520328933
5.05E9 0.5073500904575425 -0.10558025289975048
5.1E9 0.46435546534728833 -0.2243177082771604
5.15E9 0.39428813687439757 -0.32860541861508574
5.2E9 0.301553418437244 -0.4124413069180868
5.25E9 0.19184383797758342 -0.4710854620820568
5.3E9 0.07179362201043703 -0.5013251410949268
5.35E9 -0.05141862455597419 -0.5016486211419141
5.4E9 -0.17049575783196147 -0.4723184129931827