% Model:              cali 3.02 0.91mm 校准-正常组织.mph
% Version:            COMSOL 6.2.0.290
% Date:               Sep 30 2024, 14:44
% Table:              表格 1 - 全局计算 1
% N                      H_TUMOR (mm)             freq (Hz)                real(emw.S11) (1)        imag(emw.S11) (1)
1000000000 0.4484856931607727 0.6693033617742109
1050000000 0.6040731015810299 0.5273556890689116
1100000000 0.716924446916951 0.3507901084022955
1150000000 0.7798029447192036 0.15200005745015036
1200000000 0.7889548745287964 -0.05525409263531137
1250000000 0.7443178047247532 -0.25679718053487377
1300000000 0.6494759354696996 -0.4390018009898817
1350000000 0.511375262288537 -0.5896991091134759
1400000000 0.3398195155549056 -0.6989843245597324
1450000000 0.14677685468320353 -0.7598645928337793
1500000000 -0.054455593014940545 -0.7687021616882022
1550000000 -0.25016768743998735 -0.7254233163674517
1600000000 -0.4271685725983278 -0.6334842988950262
1650000000 -0.5736746436310786 -0.4996000956353182
1700000000 -0.6800947400530313 -0.33325439801172774
1750000000 -0.7396582700407806 -0.14602421773022356
1800000000 -0.7488425133247871 0.049232186554584556
1850000000 -0.7075712325865169 0.23926493318439745
1900000000 -0.6191744799561456 0.4113360806055066
1950000000 -0.49011694075736395 0.5540744048493923
2000000000 -0.3295177950499798 0.65822402511776
2050000000 -0.14849828441410526 0.717237844393352
2100000000 0.040595496620404604 0.7276776761257989
2.15E9 0.22503845453566118 0.689397265127509
2.2E9 0.3925814133012628 0.6055012417163681
2.25E9 0.5322578935815093 0.4820891143611403
2.3E9 0.6350915431312505 0.3278065185142664
2.35E9 0.69466058594676 0.15323678594222578
2.4E9 0.7074852268087384 -0.029824609167830998
2.45E9 0.6732161746039538 -0.2091631596308953
2.5E9 0.59461610726249 -0.3729533809219505
2.55E9 0.4773390856731215 -0.5105299489612976
2.6E9 0.3295249150146822 -0.6130734607372372
2.65E9 0.16123643084904488 -0.6741679751071101
2.7E9 -0.016222583104611134 -0.6901955809141649
2.75E9 -0.19106354219475608 -0.6605437595004235
2.8E9 -0.3517933215116427 -0.5876135554952735
2.85E9 -0.48796731231667034 -0.4766295965063897
2.9E9 -0.5908658849938097 -0.33526597714068485
2.95E9 -0.6540500191621805 -0.17311420823805934
3.0E9 -0.6737600750189756 -0.0010300298268971688
3.05E9 -0.6491325476370287 0.16959598087605485
3.1E9 -0.5822223922562869 0.327594184669584
3.15E9 -0.4778320714926273 0.4627470169060446
3.2E9 -0.34316172852217214 0.5664469825759778
3.25E9 -0.18730682091464673 0.6322389308284602
3.3E9 -0.020639314195738126 0.6562128065961543
3.35E9 0.14588452473439056 0.6372239606422572
3.4E9 0.30144298320822555 0.5769301823866874
3.45E9 0.4360472675166463 0.47964693612782255
3.5E9 0.5411749600857888 0.3520339436142055
3.55E9 0.6102995668925669 0.20263654998030223
3.6E9 0.6392847229817544 0.041313712835692906
3.65E9 0.6266207649909803 -0.12140938348777484
3.7E9 0.5734914950675029 -0.27502236118310924
3.75E9 0.4836694718758757 -0.40970137778964155
3.8E9 0.36324853081774156 -0.5169298318502373
3.85E9 0.22023195804775642 -0.5900298941795573
3.9E9 0.06400335450599837 -0.624572424440803
3.95E9 -0.09528571674328479 -0.6186404231307444
4.0E9 -0.24737211852373805 -0.5729302833862352
4.05E9 -0.38253962170202604 -0.4906852817387791
4.1E9 -0.4922373711030712 -0.37746640824776806
4.15E9 -0.56961876630025 -0.24077611887372494
4.2E9 -0.6099663763216292 -0.08956017978571953
4.25E9 -0.6109760668517205 0.06637924334893062
4.3E9 -0.5728829616922714 0.2170203437735277
4.35E9 -0.49842251433674734 0.3527663152193576
4.4E9 -0.3926310317326179 0.46505580049005923
4.45E9 -0.2625006274757746 0.5468998981135306
4.5E9 -0.1165129878893298 0.5933119814230867
4.55E9 0.03591615752612363 0.6016042778519726
4.6E9 0.18504483793676557 0.5715343922208036
4.65E9 0.3214253893293874 0.505295004254147
4.7E9 0.4364983764996884 0.40735009104569236
4.75E9 0.5231231535199118 0.2841305475346547
4.8E9 0.5760131228230344 0.1436104429673059
4.85E9 0.5920502823047292 -0.005208063476910416
4.9E9 0.5704614402026202 -0.1528682028963373
4.95E9 0.5128470467122677 -0.2900546288837179
5.0E9 0.42306247132949865 -0.4081753394513252
5.05E9 0.30696030126857576 -0.4998940648671517
5.1E9 0.17201042710312678 -0.5595809015823202
5.15E9 0.026821914367676492 -0.5836539862428339
5.2E9 -0.11940344847415113 -0.570791600212308
5.25E9 -0.2574518370496451 -0.5220019651033977
5.3E9 -0.378676019500493 -0.4405467332911083
5.35E9 -0.4755356357084936 -0.3317233039186559
5.4E9 -0.5420651406480069 -0.20252004048261002
5.45E9 -0.5742399674041524 -0.06116662723978986
5.5E9 -0.5702180082742249 0.08339141381787588
5.55E9 -0.5304416428596896 0.2220601367657995
5.6E9 -0.45759469645478223 0.3461700079821727
5.65E9 -0.3564182239893902 0.44801755323403464
5.7E9 -0.233398179969634 0.5213415977682149
5.75E9 -0.0963461833894856 0.5617045622530797
5.8E9 0.04609884989933147 0.5667558498030824
5.85E9 0.18501587122533325 0.5363622908833585
5.9E9 0.3117589919378501 0.47259929516431365
5.95E9 0.41849218419663753 0.3796051723767786
6.0E9 0.4986687726202343 0.2633094526246636
6.05E9 0.5474271066588025 0.1310534713302498
6.1E9 0.5618793699281955 -0.008872395571808613
6.15E9 0.5412772148801601 -0.14774592180791912
6.2E9 0.4870453986426389 -0.2769529277426987
6.25E9 0.402682431999407 -0.38851718998806284
6.3E9 0.29353504540693437 -0.47558851316825357
6.35E9 0.16646064603567867 -0.5328597142440809
6.4E9 0.029398524717186982 -0.5568875054900392
6.45E9 -0.10912397577289959 -0.5462979453194027
6.5E9 -0.24052012129674633 -0.5018639956072212
6.55E9 -0.35667479930502904 -0.426450438003251
6.6E9 -0.4504450786907681 -0.32482953749777993
6.65E9 -0.5160992229028672 -0.20337890898008718
6.7E9 -0.5496667862014161 -0.06968051163971732
6.75E9 -0.549177977712181 0.0679539617209386
6.8E9 -0.5147775289750748 0.2010012939261049
6.85E9 -0.4487063759798366 0.32125577930027865
6.9E9 -0.35515299442147036 0.4213357447982105
6.95E9 -0.2399845889077552 0.49513588544196285
7.0E9 -0.1103759297024821 0.5381975123158694
7.05E9 0.025640074542928916 0.5479743695495944
7.1E9 0.1596713885783986 0.5239785820213071
7.15E9 0.28348413219959934 0.4677990242851829
7.2E9 0.38950622686458874 0.38299240332760054
7.25E9 0.4712868937646919 0.2748550974633318
7.3E9 0.5238846733638051 0.1500908295645781
7.35E9 0.5441613308688876 0.01639520222999131
7.4E9 0.5309648802885205 -0.11801728947439345
7.45E9 0.485191638350438 -0.2449151061134947
7.5E9 0.40972434078273284 -0.356550305033882
7.55E9 0.30925055629374437 -0.44612816785831505
7.6E9 0.18997256783708744 -0.5082179031185883
7.65E9 0.05922621729595434 -0.5390799533024934
7.7E9 -0.07496839788433114 -0.5368902720615846
7.75E9 -0.2043973362394599 -0.5018479545030763
7.8E9 -0.32115465417896677 -0.43615951266331776
7.85E9 -0.41812509102346324 -0.3439005255059078
7.9E9 -0.4894179593272203 -0.23076292714262517
7.95E9 -0.5307254284669205 -0.10370335115282009
8.0E9 -0.5395829761255257 0.02948576681392108
8.05E9 -0.5155158727210417 0.1606556700909581
8.1E9 -0.4600627684131749 0.28180144018566716
8.15E9 -0.37667527667781747 0.3855516474491819
8.2E9 -0.27050033626994774 0.46561709571274457
8.25E9 -0.1480595203107054 0.5171710587056364
8.3E9 -0.01684582960990202 0.5371379821827498
8.35E9 0.11513656480177802 0.5243736216359828
8.4E9 0.23986096945954838 0.4797265463775755
8.45E9 0.3497652279960873 0.4059783660429904
8.5E9 0.43820777364804187 0.3076674276195978
8.55E9 0.4998655677088765 0.19080763583322702
8.6E9 0.5310506563262875 0.0625200850445253
8.65E9 0.5299271548970325 -0.06939993923907516
8.7E9 0.4966164566989935 -0.19695453446014946
8.75E9 0.43318501995913455 -0.31242527972076134
8.8E9 0.34351587548812823 -0.40883736958439904
8.85E9 0.23307168287202096 -0.48037840986733676
8.9E9 0.10856342339376734 -0.5227471165551146
8.95E9 -0.02245566129346166 -0.5334111590338931
9.0E9 -0.15204679360122617 -0.5117586027743027
9.05E9 -0.2723657872883027 -0.45913359568542084
9.1E9 -0.3761376920961246 -0.37875379684422616
9.15E9 -0.45709715224359215 -0.2755141885558613
9.2E9 -0.5103675339170771 -0.15568891117932915
9.25E9 -0.5327554647272399 -0.02654915546123414
9.3E9 -0.5229425671866866 0.10407951120108001
9.35E9 -0.48156255054322267 0.22829311836779206
9.4E9 -0.4111590300873982 0.3385891650206451
9.45E9 -0.31602697035934446 0.4283207820549624
9.5E9 -0.20194796514839145 0.49209731441839494
9.55E9 -0.07583615741912819 0.5261069999536006
9.6E9 0.05468298178375602 0.5283425000905165
9.65E9 0.18173489604229084 0.4987162584117882
9.7E9 0.29767091357748793 0.4390595720520139
9.75E9 0.39552727230355456 0.35300638215945535
9.8E9 0.46944088912824516 0.24576966888690382
9.85E9 0.5149974987798441 0.12382457356565638
9.9E9 0.5294920547211206 -0.0054823594801608295
9.95E9 0.5120865902983986 -0.13437436932127814
1.0E10 0.4638567649866085 -0.25510995394081
1000000000 0.4491831044998398 0.6681483223621753
1050000000 0.6044737596750487 0.5260225689793401
1100000000 0.7169819421316217 0.3493574741652268
1150000000 0.7794923279290636 0.15055862089491112
1200000000 0.7882758007545733 -0.056607512065322454
1250000000 0.7432959156719001 -0.2579664758990757
1300000000 0.6481623333823094 -0.4398986362901567
1350000000 0.5098440852064956 -0.5902497147709241
1400000000 0.3381636951623305 -0.6991355487274966
1450000000 0.1451022605305683 -0.7595886978406896
1500000000 -0.05603722612625557 -0.7679999123332634
1550000000 -0.25154652744169514 -0.724325075161628
1600000000 -0.4282446051398612 -0.6320489964508593
1650000000 -0.5743651578220649 -0.49791206593476106
1700000000 -0.6803407911322851 -0.3314182361992486
1750000000 -0.7394295917377448 -0.1441580030377917
1800000000 -0.7481404805495906 0.05100482987067842
1850000000 -0.7064296093181409 0.2408233793717229
1900000000 -0.6176578406128469 0.41257122420674075
1950000000 -0.48831684580097595 0.554896514734397
2000000000 -0.3275469875097705 0.6585693455291888
2050000000 -0.14648331093978725 0.7170734636424573
2100000000 0.04252273151094937 0.7270043011743463
2.15E9 0.22674960605792815 0.6882496847189358
2.2E9 0.3939604515606398 0.6039464379400687
2.25E9 0.5332090877256125 0.4802221575089294
2.3E9 0.635546133105779 0.32574452494893924
2.35E9 0.6945816890676743 0.15111134011104355
2.4E9 0.7068706412034225 -0.031876063924729574
2.45E9 0.672098884896096 -0.21100638653965303
2.5E9 0.5930624521682232 -0.37446627043919956
2.55E9 0.47544469694028013 -0.5116107055447363
2.6E9 0.32740867967389886 -0.6136475098765601
2.65E9 0.15903286055182253 -0.6741931218559526
2.7E9 -0.01837208158989654 -0.6896650615866334
2.75E9 -0.19301992272390223 -0.6594869646210948
2.8E9 -0.3534290656506402 -0.5860943549242418
2.85E9 -0.4891748902343334 -0.4747423590174913
2.9E9 -0.5915649331595875 -0.3331295363760717
2.95E9 -0.6541927408232113 -0.17086417214569294
3.0E9 -0.6733344898293164 0.001190050876345047
3.05E9 -0.6481633657278961 0.17164398752552337
3.1E9 -0.5807694545860466 0.32933871255393177
3.15E9 -0.4759864690865423 0.46407593679913756
3.2E9 -0.3410398740313827 0.5672747096638961
3.25E9 -0.18504288407172195 0.632511924737245
3.3E9 -0.01837653813292981 0.6559129542715103
3.35E9 0.1480030432415365 0.6363696426661415
3.4E9 0.3032834429093738 0.575574981099194
3.45E9 0.43749365239679894 0.4778760985545672
3.5E9 0.5421363361869628 0.34995885353561934
3.55E9 0.6107157394943645 0.20038758330532758
3.6E9 0.6391299181563501 0.0390319430937974
3.65E9 0.6259051264414744 -0.1235811007302127
3.7E9 0.5722603226924206 -0.2769483664844771
3.75E9 0.4820002653756566 -0.411261692686744
3.8E9 0.3612460332011782 -0.5180276285616742
3.85E9 0.2180215137107597 -0.5905974917268878
3.9E9 0.061722998567858234 -0.6245754426652349
3.95E9 -0.0974939426723239 -0.6180798383262245
4.0E9 -0.2493710791667681 -0.5718422584509141
4.05E9 -0.3842056675872167 -0.48913878293905655
4.1E9 -0.49346804125528837 -0.3755587615767819
4.15E9 -0.5703391249712293 -0.23862679224072353
4.2E9 -0.6101335822501954 -0.08730319334391111
4.25E9 -0.6105818894004169 0.06860378654665762
4.3E9 -0.5719540942830194 0.21907505805200533
4.35E9 -0.4970186819543579 0.3545250964329931
4.4E9 -0.3908410347186189 0.46641160803947934
4.45E9 -0.26043659742406444 0.54777126749731
4.5E9 -0.11430324340068321 0.5936478707954519
4.55E9 0.03813518474744431 0.6013869673657002
4.6E9 0.18713708721952146 0.5707802851978817
4.65E9 0.32326353255510887 0.5040533146909579
4.7E9 0.4379715448483049 0.40569953315042184
4.75E9 0.5241435686428453 0.28217426188874234
4.8E9 0.5765212484110585 0.14146949413902954
4.85E9 0.5920182081857173 -0.007402205910705103
4.9E9 0.5698943202986045 -0.15498173663241735
4.95E9 0.511782528205295 -0.2919595568399815
5.0E9 0.4215681693974398 -0.4097571885330757
5.05E9 0.3051294861812213 -0.5010587296957699
5.1E9 0.16995619311208296 -0.5602602110346981
5.15E9 0.02467018766251421 -0.5838096665760205
5.2E9 -0.12152163718386647 -0.5704174034010171
5.25E9 -0.259408345336511 -0.5211238403363915
5.3E9 -0.38035336426483646 -0.4392210376839568
5.35E9 -0.47683406774120973 -0.33003316867380594
5.4E9 -0.5429085903252765 -0.20057012334336624
5.45E9 -0.5745804997081456 -0.059076583300903984
5.5E9 -0.5700385201889143 0.08549433050055215
5.55E9 -0.5297566489989203 0.22404887491834755
5.6E9 -0.45644917172149885 0.34792543613586535
5.65E9 -0.3548845960885542 0.44943561454864345
5.7E9 -0.23157168072679246 0.522339467434809
5.75E9 -0.09433886778830623 0.5622254425213529
5.8E9 0.048165030807673585 0.5667721299488274
5.85E9 0.18701650730576116 0.535876906448353
5.9E9 0.31357470366219165 0.47164523455674995
5.95E9 0.42001571573505886 0.3782431916656166
6.0E9 0.4998112734140978 0.26162416419269696
6.05E9 0.5481232437577719 0.1291480633072702
6.1E9 0.5620909887385864 -0.010882478684780124
6.15E9 0.5409953544872478 -0.14973995399660012
6.2E9 0.4862905644773065 -0.2788121176962824
6.25E9 0.4015031284249926 -0.39013171651261414
6.3E9 0.2920046690954514 -0.4768639720977351
6.35E9 0.16467293326543528 -0.5337226052649972
6.4E9 0.027461827591364597 -0.5572894434766069
6.45E9 -0.11109324197004522 -0.5462183546537064
6.5E9 -0.24240446876742175 -0.5013111342516389
6.55E9 -0.3583626789266724 -0.425460696454636
6.6E9 -0.45183749203058154 -0.32346506085069837
6.65E9 -0.517115538755985 -0.20172369198188822
6.7E9 -0.5502494137966266 -0.06783521016952658
6.75E9 -0.5492956197418238 0.06987818035664968
6.8E9 -0.514426826849052 0.20288948097206427
6.85E9 -0.44791186112152137 0.3229961001757226
6.9E9 -0.35396536588991084 0.42282611931916025
6.95E9 -0.23847744150286898 0.4962899727559267
7.0E9 -0.10864115072831595 0.538949687367764
7.05E9 0.027497943849754947 0.548283406228287
7.1E9 0.1615414739498606 0.523829842540204
7.15E9 0.28525584326602227 0.467205048527072
7.2E9 0.3910757750449806 0.38199188923476646
7.25E9 0.47256333092913594 0.2735103579478976
7.3E9 0.5247951072797973 0.1484838975006509
7.35E9 0.5446550276724941 0.014622828618854666
7.4E9 0.5310160325934495 -0.11984944125067863
7.45E9 0.4848006560148537 -0.24669872695316686
7.5E9 0.40891760567650537 -0.35818080359719934
7.55E9 0.30807866860452454 -0.44751076505786647
7.6E9 0.1885071955448373 -0.509273109370722
7.65E9 0.05755573853600176 -0.5397481163097733
7.7E9 -0.07674420160524581 -0.537134935984787
7.75E9 -0.20617322336208377 -0.501657839320285
7.8E9 -0.3228261526841772 -0.4355490021809681
7.85E9 -0.41959464620481235 -0.34290863986256165
7.9E9 -0.4906006355674216 -0.22945084578267705
7.95E9 -0.5315538270508654 -0.10215063959121347
8.0E9 -0.5400110787293285 0.03118599436732854
8.05E9 -0.5155215865172108 0.1624023555670252
8.1E9 -0.4596490295659722 0.2834916115014685
8.15E9 -0.37586965879025674 0.3870865073206998
8.2E9 -0.2693532028234533 0.46690780358162115
8.25E9 -0.14664084877862216 0.5181438636083888
8.3E9 -0.01524091371596974 0.5377384093312092
8.35E9 0.11683226432078211 0.5245694780022009
8.4E9 0.2415475098380256 0.47950958574307717
8.45E9 0.3513440645309853 0.4053645363991629
8.5E9 0.43958749030741695 0.3066957079802653
8.55E9 0.5009671296325131 0.1895375504088317
8.6E9 0.5318118894438234 0.061028055975658524
8.65E9 0.5303062067795168 -0.07102517720045959
8.7E9 0.4965940534972232 -0.19861718538681222
8.75E9 0.4327654034177 -0.31402809895365386
8.8E9 0.3427263781277409 -0.4102873153225047
8.85E9 0.23196097502674962 -0.4815920122144863
8.9E9 0.10719853943215743 -0.5236552593649056
8.95E9 -0.02399334204376107 -0.5339630031835646
9.0E9 -0.15366637643088712 -0.5119244277997281
9.05E9 -0.27397222041372377 -0.45890639803442934
9.1E9 -0.37763734031435164 -0.3781495544745982
9.15E9 -0.4584032587691999 -0.2745707795163363
9.2E9 -0.5114052488676573 -0.1544637536554442
9.25E9 -0.5334661441284236 -0.02511571353954775
9.3E9 -0.5232870904797695 0.10563614325257897
9.35E9 -0.48152346484276665 0.2298812850052725
9.4E9 -0.41074140195643133 0.3401160647558101
9.45E9 -0.3152579056516537 0.42969790375681793
9.5E9 -0.2008748389428952 0.4932455713672623
9.55E9 -0.07452367360398836 0.5269612611124157
9.6E9 0.05615671329215193 0.5288552590767713
9.65E9 0.18328302136492028 0.498860236663472
9.7E9 0.29920295434856964 0.4388291193732
9.75E9 0.39695439980098346 0.3524176105413275
9.8E9 0.4706810475925316 0.24485932953504844
9.85E9 0.5159800870493552 0.12264775813108009
9.9E9 0.5301619054301979 -0.006855548038117593
9.95E9 0.5124070291874082 -0.13586297598943942
1.0E10 0.4638115866167365 -0.25662691777716823
1000000000 0.4495112185626276 0.6675997701871446
1050000000 0.6046609214021793 0.5253902882645155
1100000000 0.7170063407788156 0.3486787789153669
1150000000 0.7793423445224953 0.14987653641285878
1200000000 0.7879514913607366 -0.057247124508965935
1250000000 0.7428096415607812 -0.25851816032945435
1300000000 0.647538487301964 -0.4403206750230728
1350000000 0.5091179351636516 -0.5905073326929074
1400000000 0.3373793693921444 -0.6992037760168753
1450000000 0.14430995722462986 -0.7594546348083564
1500000000 -0.0567846009525356 -0.7676641696971511
1550000000 -0.25219703515790476 -0.7238022700723452
1600000000 -0.4287510162680076 -0.6313672521804934
1650000000 -0.5746884943840321 -0.49711149924720255
1700000000 -0.6804533774868 -0.330548503104738
1750000000 -0.7393173609114003 -0.14327507665230146
1800000000 -0.7478043574324803 0.05184242130930608
1850000000 -0.7058858489837294 0.24155859838504076
1900000000 -0.6169372624250218 0.41315255893263797
1950000000 -0.48746300152721544 0.5552816900365618
2000000000 -0.32661339737729594 0.6587284326178671
2050000000 -0.14552996081668237 0.7169911676883785
2100000000 0.043433394961967235 0.7266812575225701
2.15E9 0.22755690041106755 0.6877026580583001
2.2E9 0.394609600110077 0.6032074066376136
2.25E9 0.5336549893587353 0.4793363512255055
2.3E9 0.6357565073662297 0.3247675491756562
2.35E9 0.6945393827002935 0.15010557651709489
2.4E9 0.706574935493833 -0.03284554138636829
2.45E9 0.6715657131718811 -0.2118761054246829
2.5E9 0.5923235111594082 -0.375178578991412
2.55E9 0.4745455050006404 -0.5121176397600049
2.6E9 0.32640570134045693 -0.6139140504135079
2.65E9 0.15798988038347553 -0.6741996186756335
2.7E9 -0.01938810027232467 -0.6894086577926044
2.75E9 -0.19394322238943718 -0.6589819163610893
2.8E9 -0.3541994315035292 -0.5853712162009873
2.85E9 -0.48974164741349147 -0.47384607618467856
2.9E9 -0.5918903311448518 -0.33211657294894487
2.95E9 -0.6542544919887496 -0.16979885336890654
3.0E9 -0.6731272864821306 0.002239728482346846
3.05E9 -0.6476992707447033 0.1726107981177799
3.1E9 -0.5800771395798517 0.3301605929267294
3.15E9 -0.47510935495680606 0.4647000314255671
3.2E9 -0.3400333048304626 0.567660798385928
3.25E9 -0.1839705302940846 0.6326350085445158
3.3E9 -0.017306275190937193 0.65576483541234
3.35E9 0.1490035046874226 0.6359594060848033
3.4E9 0.3041508872248169 0.5749283589443516
3.45E9 0.43817337117949084 0.4770337727704097
3.5E9 0.5425855702907546 0.3489738183374469
3.55E9 0.6109063401656929 0.19932174592136565
3.6E9 0.6390500692204452 0.037952184785115
3.65E9 0.6255600298031013 -0.12460715230238967
3.7E9 0.5716718136718235 -0.2778565887057547
3.75E9 0.4812053892709477 -0.4119954800082238
3.8E9 0.3602946767212023 -0.5185414182474001
3.85E9 0.21697324156486497 -0.5908595868656811
3.9E9 0.060643293643550505 -0.6245699588024081
3.95E9 -0.0985378001544218 -0.6178076534981114
4.0E9 -0.2503142348290161 -0.571320907771468
4.05E9 -0.3849897520182801 -0.48840130494710793
4.1E9 -0.4940448078188582 -0.3746515703208668
4.15E9 -0.5706734351160756 -0.23760671215741236
4.2E9 -0.6102055490459828 -0.08623384880227336
4.25E9 -0.6103880452273028 0.06965599282945599
4.3E9 -0.5715075133073143 0.22004511712135574
4.35E9 -0.49634805748039856 0.35535344678693426
4.4E9 -0.38998878045046004 0.46704781243212984
4.45E9 -0.25945610485087683 0.5481770825505436
4.5E9 -0.11325548034679489 0.5937995225448583
4.55E9 0.039185510463143204 0.6012765007723296
4.6E9 0.18812555227117012 0.5704159176029457
4.65E9 0.32412995799770794 0.5034587874484867
4.7E9 0.43866364888840614 0.4049125178505601
4.75E9 0.5246200944744306 0.28124393381165125
4.8E9 0.5767543860149623 0.14045343287754483
4.85E9 0.5919951748021506 -0.00844159240829198
4.9E9 0.5696180162434444 -0.1559810443346782
4.95E9 0.5112712397948229 -0.2928582427511706
5.0E9 0.4208543462323586 -0.410501222837954
5.05E9 0.3042576732924005 -0.5016038272018066
5.1E9 0.1689802470154497 -0.5605744519490291
5.15E9 0.02364994682429753 -0.583875352932148
5.2E9 -0.12252402484017413 -0.5702320426643971
5.25E9 -0.26033221447402755 -0.5207001997210312
5.3E9 -0.3811432125351245 -0.438586268833694
5.35E9 -0.4774428995992197 -0.32922705936779173
5.4E9 -0.5433007197439446 -0.1996425871786754
5.45E9 -0.5747336411369436 -0.05808454614025859
5.5E9 -0.569945042348724 0.08649045063860333
5.55E9 -0.5294239198817661 0.22498887285675584
5.6E9 -0.4558989815970169 0.34875297759324186
5.65E9 -0.3541517042056402 0.45010162082376026
5.7E9 -0.23070158640560587 0.5228050207977688
5.75E9 -0.09338495385642087 0.5624640400361834
5.8E9 0.04914479790772024 0.5667711575865262
5.85E9 0.187963112975436 0.5356382563259596
5.9E9 0.3144316388475137 0.47118504226129354
5.95E9 0.42073233566481555 0.3775907241577265
6.0E9 0.5003457648787345 0.2608199384681703
6.05E9 0.5484450319251993 0.1282413191624284
6.1E9 0.5621824505616253 -0.011836793782955109
6.15E9 0.5408527480187434 -0.15068450508901207
6.2E9 0.48592412943028496 -0.2796906104295857
6.25E9 0.4009363607810171 -0.39089223255042743
6.3E9 0.2912728192421728 -0.4774620184693884
6.35E9 0.16382082087644198 -0.534123701790396
6.4E9 0.026541105184437086 -0.5574710994076971
6.45E9 -0.112027213187001 -0.546171321073844
6.5E9 -0.24329594434507618 -0.5010398609288239
6.55E9 -0.3591588592199795 -0.4249829687432405
6.6E9 -0.4524916534986786 -0.3228108412722268
6.65E9 -0.5175897806973735 -0.20093323937617705
6.7E9 -0.550516856136473 -0.06695659361141089
6.75E9 -0.5493419215819934 0.07079201841436791
6.8E9 -0.5142509381876833 0.2037839304056409
6.85E9 -0.44752596853158066 0.3238181601985069
6.9E9 -0.35339404361976295 0.42352754665192105
6.95E9 -0.23775606878717623 0.49683011131673216
7.0E9 -0.10781370061592917 0.5392978124684479
7.05E9 0.028381602103572948 0.5484204490991427
7.1E9 0.16242859013786326 0.5237494014109143
7.15E9 0.28609393490391305 0.46691363743668923
7.2E9 0.39181572149252286 0.3815084220979432
7.25E9 0.47316223247674305 0.2728649102579525
7.3E9 0.5252187463207273 0.14771582884859427
7.35E9 0.5448797952098376 0.013778383962131133
7.4E9 0.5310302161201846 -0.12071990640765945
7.45E9 0.48460502230676816 -0.24754373358497342
7.5E9 0.4085252522713102 -0.3589507748208906
7.55E9 0.30751415878607224 -0.4481609164502589
7.6E9 0.18780503161385642 -0.5097660386756573
7.65E9 0.05675826518125842 -0.5400559447952082
7.7E9 -0.07758933976727178 -0.5372408792986821
7.75E9 -0.2070159202893537 -0.5015571183137862
7.8E9 -0.32361680809476834 -0.43524904230041017
7.85E9 -0.42028708602230486 -0.342428549425636
7.9E9 -0.4911548124837505 -0.22882020638546843
7.95E9 -0.5319381409947196 -0.10140768339125922
8.0E9 -0.540204180091197 0.03199670845578824
8.05E9 -0.5155135569149542 0.16323262426258375
8.1E9 -0.4594418736826977 0.28429246421708165
8.15E9 -0.37547708374417454 0.3878111031910347
8.2E9 -0.2687997056056016 0.46751417432043985
8.25E9 -0.1459601744389408 0.5185973397919748
8.3E9 -0.014473984305615417 0.5380135895551031
8.35E9 0.11763981990283323 0.5246516304901786
8.4E9 0.24234807368962433 0.4793954080781611
8.45E9 0.35209083245404094 0.4050622384893756
8.5E9 0.4402371950952523 0.30622442354122564
8.55E9 0.5014825287164968 0.18892612074878695
8.6E9 0.5321638772119066 0.060313264644153944
8.65E9 0.5304754355618639 -0.07180081093849672
8.7E9 0.49657197646046747 -0.19940792343856328
8.75E9 0.43255468580762835 -0.3147876653875259
8.8E9 0.3423406587728899 -0.41097158761711094
8.85E9 0.2314239961207708 -0.4821615694447159
8.9E9 0.10654269768525992 -0.5240776425627182
8.95E9 -0.02472893741425022 -0.5342145594232494
9.0E9 -0.1544382253781027 -0.5119916329966528
9.05E9 -0.27473499784832794 -0.4587865830331703
9.1E9 -0.378346555784621 -0.37785099335881467
9.15E9 -0.4590178537380011 -0.2741121363851863
9.2E9 -0.511889978500562 -0.1538729222350777
9.25E9 -0.5337936031602285 -0.024428120512034367
9.3E9 -0.5234392642621648 0.10637966785980045
9.35E9 -0.4814927158630285 0.23063694091751397
9.4E9 -0.4105308370307551 0.3408396707064043
9.45E9 -0.3148811072556537 0.4303474871898445
9.5E9 -0.2003549830614552 0.49378380453266485
9.55E9 -0.07389209336894052 0.5273576008796768
9.6E9 0.05686242650535505 0.5290876679002707
9.65E9 0.18402126178736575 0.4989163892868187
9.7E9 0.2999305549763152 0.43870703202617034
9.75E9 0.39762914977605085 0.35212566427456987
9.8E9 0.47126412798429096 0.24441569474289881
9.85E9 0.5164382867177765 0.12207926116497059
9.9E9 0.5304694935387472 -0.007515044699695029
9.95E9 0.5125471820434607 -0.1365745826788482
1.0E10 0.46377729254161687 -0.2573489982111473
1000000000 0.4494852284829248 0.6676474467225095
1050000000 0.6046471966157455 0.5254445862045309
1100000000 0.7170065961731397 0.34873645044247104
1150000000 0.7793574142907908 0.14993389955223388
1200000000 0.7879812280209144 -0.057193956970945425
1250000000 0.742852853095155 -0.2584730205229839
1300000000 0.6475929536507217 -0.44028704018871895
1350000000 0.5091805316265946 -0.5904880404496313
1400000000 0.3374462606646331 -0.6992008012931205
1450000000 0.14437682719565004 -0.7594689178634824
1500000000 -0.05672227028743855 -0.7676954888980797
1550000000 -0.2521436357196903 -0.7238491993731273
1600000000 -0.42871048691786107 -0.6314272255683754
1650000000 -0.5746640319661935 -0.4971809564033367
1700000000 -0.6804471868215528 -0.33062309865537887
1750000000 -0.7393304564893008 -0.14334995923043894
1800000000 -0.7478364513234954 0.051772273240014016
1850000000 -0.7059353405318197 0.2414980239574157
1900000000 -0.6170013182901396 0.4131058755921466
1950000000 -0.48753771876284235 0.5552523801903508
2000000000 -0.32669404996681406 0.658718877504118
2050000000 -0.1456113143508473 0.717002458123514
2100000000 0.04335673073245747 0.7267130970968143
2.15E9 0.2274901067385857 0.6877533595178957
2.2E9 0.3945572919735167 0.6032739820533662
2.25E9 0.5336208909140238 0.47941469506340434
2.3E9 0.6357431868841307 0.3248527015992078
2.35E9 0.6945480647226923 0.15019204565409636
2.4E9 0.706605400121568 -0.03276341896249973
2.45E9 0.6716162905799369 -0.2118037871363031
2.5E9 0.5923911750052698 -0.37512094748779057
2.55E9 0.47462605879060116 -0.5120786699657416
2.6E9 0.3264940442175561 -0.6138965345988323
2.65E9 0.15808033563131368 -0.674204966885206
2.7E9 -0.019301413865875184 -0.6894367879555219
2.75E9 -0.19386600075626906 -0.6590312437756998
2.8E9 -0.35413680417687704 -0.5854387444698547
2.85E9 -0.4896978313631194 -0.4739275839119107
2.9E9 -0.5918683430832472 -0.3322068841950626
2.95E9 -0.6542559391870575 -0.16989217437754542
3.0E9 -0.6731522511873158 0.002149428794547949
3.05E9 -0.6477462966934193 0.17252938989508843
3.1E9 -0.580143321767785 0.3300933967030078
3.15E9 -0.4751905264865448 0.46465146560395304
3.2E9 -0.34012430791349674 0.5676340867720521
3.25E9 -0.18406555270810046 0.632631967444782
3.3E9 -0.017399229215105727 0.6557857540752343
3.35E9 0.14891858639111746 0.63600302772211
3.4E9 0.30407946499329147 0.5749919627091312
3.45E9 0.43812004617412975 0.4771133504049443
3.5E9 0.5425537891946369 0.3490643331664717
3.55E9 0.6108981751568919 0.19941745684801576
3.6E9 0.6390660865863318 0.03804701417423949
3.65E9 0.6255992549059368 -0.12451923041718574
3.7E9 0.5717317939372618 -0.27778116461765173
3.75E9 0.48128235088230426 -0.411937352653446
3.8E9 0.36038376497246194 -0.5185042901062789
3.85E9 0.2170688297197373 -0.5908458285977093
3.9E9 0.06073934085333228 -0.6245804585411412
3.95E9 -0.09844736447526188 -0.6178417604900143
4.0E9 -0.25023512461617864 -0.5713764741752566
4.05E9 -0.38492696091314915 -0.48847482333936354
4.1E9 -0.4940022917401632 -0.37473839824833943
4.15E9 -0.5706538616501547 -0.23770136931518893
4.2E9 -0.6102101299612248 -0.08633036753383852
4.25E9 -0.6104164628927718 0.06956368660195887
4.3E9 -0.5715579455383691 0.21996281746809393
4.35E9 -0.4964172987075137 0.3552863010353188
4.4E9 -0.3900724506854699 0.4669999978335055
4.45E9 -0.2595489321799644 0.5481515468991861
4.5E9 -0.11335163800141679 0.5937978048174581
4.55E9 0.03909203463940685 0.6012986423235359
4.6E9 0.18804057783589948 0.5704604684254021
4.65E9 0.3240587493193987 0.5035229058464287
4.7E9 0.43861059040039696 0.4049921560407837
4.75E9 0.5245884233944942 0.2813340968152078
4.8E9 0.5767459982469099 0.1405484938566823
4.85E9 0.5920105150428618 -0.008347540302740843
4.9E9 0.5696560581169354 -0.15589382137552893
4.95E9 0.5113295564363044 -0.29278322366248827
5.0E9 0.42092926642271744 -0.410443007131779
5.05E9 0.30434451323041184 -0.5015659586300633
5.1E9 0.16907360337418995 -0.5605592039343094
5.15E9 0.02374403309226114 -0.5838835928957211
5.2E9 -0.1224350193922172 -0.5702631834691183
5.25E9 -0.2602537653147038 -0.5207522411656885
5.3E9 -0.3810801221538809 -0.43865592660773967
5.35E9 -0.47739900258474777 -0.32930997339800144
5.4E9 -0.5432786490828246 -0.1997335962441497
5.45E9 -0.5747346703210781 -0.05817801136560764
5.5E9 -0.5699690130216806 0.08640029397323594