% Model:              cali 3.02 0.91mm 校准-开路.mph
% Version:            COMSOL 6.2.0.290
% Date:               Sep 11 2024, 11:39
% Table:              表格 1 - 全局计算 1
% ts_index               freq (Hz)                real(emw.S11) (1)        imag(emw.S11) (1)
1000000000 0.12496161132701858 0.990762357716799
1050000000 0.35857245855735337 0.9317054683043726
1100000000 0.5711967747806551 0.818449218078161
1150000000 0.750486369028123 0.6576115029251194
1200000000 0.8860408981664947 0.4585628275500077
1250000000 0.9700042867004147 0.23287962647530658
1300000000 0.9975135776505838 -0.006326475494352845
1350000000 0.9669760477230533 -0.24516518256112804
1400000000 0.8801598347481424 -0.46976737444046246
1450000000 0.7420932857492826 -0.6670837631425427
1500000000 0.5607783633124511 -0.8256379039576585
1550000000 0.3467333839930431 -0.9361912881232677
1600000000 0.1123897285747944 -0.9922825303454108
1650000000 -0.12862445435996275 -0.990608989703715
1700000000 -0.3622735905866161 -0.9312273867933133
1750000000 -0.5749320919545874 -0.8175598416446719
1800000000 -0.7541822341903566 -0.6562028393842496
1850000000 -0.8895450365434737 -0.4565483490850514
1900000000 -0.9730998073242033 -0.2302379418142897
1950000000 -0.9999541353045283 0.009518554560422285
2000000000 -0.968534942546821 0.24871940864338443
2050000000 -0.8806822284274509 0.4733955065812192
2100000000 -0.7415395495774573 0.6704329190365469
2.15E9 -0.5592481583782248 0.8283435175146713
2.2E9 -0.34446407111099 0.9379371656614837
2.25E9 -0.10972822400236525 0.9928556091733057
2.3E9 0.13127146527032904 0.9899372749766141
2.35E9 0.36450140767098155 0.9293929974300479
2.4E9 0.5763994014368319 0.814784365993668
2.45E9 0.7546599055136561 0.6528081040205542
2.5E9 0.888942836054488 0.4529009126364978
2.55E9 0.9714663974395944 0.22668897051101078
2.6E9 0.9974515522098187 -0.012685636840656428
2.65E9 0.9653942296613469 -0.25132312682387836
2.7E9 0.8771508108164693 -0.4753663351026942
2.75E9 0.7378323937088489 -0.6717986097590007
2.8E9 0.555513461732024 -0.8291948865871286
2.85E9 0.34077048886129424 -0.9383837938817866
2.9E9 0.1060753441588826 -0.9929829746241865
2.95E9 -0.13492330738726252 -0.9897761824547825
3.0E9 -0.36819052514171297 -0.9289089637097927
3.05E9 -0.580122494699356 -0.8138896188492707
3.1E9 -0.7583432048308059 -0.6513932264315654
3.15E9 -0.8924329930441056 -0.4508782268979329
3.2E9 -0.9745447416543263 -0.224036667421669
3.25E9 -0.9998696793866314 0.015890128765581792
3.3E9 -0.9669236307636272 0.2548898305544591
3.35E9 -0.8776356115851608 0.47900433786174246
3.4E9 -0.737233111245081 0.6751518102282603
3.45E9 -0.5539312902710458 0.8318955031953744
3.5E9 -0.33844566057229186 0.9401130277005083
3.55E9 -0.10335867545506083 0.9935263166168368
3.6E9 0.13762072848007634 0.9890617327611922
3.65E9 0.3704597492661039 0.927020611662539
3.7E9 0.5816187806933287 0.8110522462958155
3.75E9 0.7588353714742091 0.6479330550517499
3.8E9 0.8918304670139214 0.4471666944484284
3.85E9 0.9728976072189877 0.22042960448184587
3.9E9 0.9973429194541226 -0.019105498957858687
3.95E9 0.9637522908319586 -0.2575295864324105
4.0E9 0.8740715661580669 -0.4809981117901476
4.05E9 0.7334955869065883 -0.6765281065204294
4.1E9 0.5501719931778988 -0.8327472337644878
4.15E9 0.3347355981070365 -0.9405527740231817
4.2E9 0.09969843895689082 -0.9936429130889085
4.25E9 -0.14127110192709474 -0.9888891259154937
4.3E9 -0.37413989036888307 -0.9265267537269545
4.35E9 -0.585327257271461 -0.8101507817200446
4.4E9 -0.7625002726598629 -0.6465149099871681
4.45E9 -0.895299786715351 -0.44514368519941394
4.5E9 -0.9759531813269743 -0.21777901091519913
4.55E9 -0.9997359706403245 0.022307028786283895
4.6E9 -0.9652532933507308 0.26109225476935216
4.65E9 -0.8745234195787636 0.48463030769716053
4.7E9 -0.7328578720217406 0.6798721315178038
4.75E9 -0.5485456908324797 0.8354330183093766
4.8E9 -0.33236174098708837 0.9422588965802572
4.85E9 -0.09692979826172739 0.9941523355532053
4.9E9 0.14402032971416823 0.9881279845355823
4.95E9 0.3764566649831995 0.924578043960303
5.0E9 0.5868621679471783 0.8072400400002403
5.05E9 0.7630175509015711 0.6429708797031497
5.1E9 0.8947051984354097 0.44134219078437487
5.15E9 0.9742949214143511 0.21408169899016946
5.2E9 0.9971794949464847 -0.025606552863701577
5.25E9 0.9620365742242805 -0.2638042346519887
5.3E9 0.8709032071259526 -0.48668011155546315
5.35E9 0.7290592887320249 -0.6812861516644249
5.4E9 0.5447263861273174 -0.8363042234888669
5.45E9 0.32859801053243115 -0.9427017284034996
5.5E9 0.09322648710022251 -0.994258837288943
5.55E9 -0.14770016835504035 -0.9879362822927947
5.6E9 -0.38015106908906726 -0.9240609223960137
5.65E9 -0.5905697691519991 -0.8063162464621803
5.7E9 -0.7666683623662076 -0.6415361077019577
5.75E9 -0.8981509046342611 -0.4393117855610781
5.8E9 -0.9773220588625104 -0.21143428313215154
5.85E9 -0.9995435439554309 0.028795516464688326
5.9E9 -0.963510338236222 0.26734786617924894
5.95E9 -0.8713294069689033 0.490289789913263
6.0E9 -0.728395495051374 0.6846056449985154
6.05E9 -0.5430712241090232 0.8389626739402486
6.1E9 -0.3261913577419856 0.9443750288798308
6.15E9 -0.09042212703661523 0.9947265973017295
6.2E9 0.15048493014269085 0.9871222153789916
6.25E9 0.38249921340076565 0.9220476406166281
6.3E9 0.59212868585616 0.8033306426483389
6.35E9 0.7672003806194347 0.6379084619165898
6.4E9 0.8975598974983345 0.4354186122296111
6.45E9 0.9756527985905422 0.20763804625804916
6.5E9 0.9969567271156663 -0.03219814992955937
6.55E9 0.9602398880936086 -0.2701605494989573
6.6E9 0.8676313323252178 -0.49242831048913516
6.65E9 0.7244994123691719 -0.6860860278983147
6.7E9 0.5391449336611845 -0.8398701161418041
6.75E9 0.32232492137189334 -0.9448224837110035
6.8E9 0.08663279021889779 -0.9948126261667142
6.85E9 -0.1542284862164973 -0.986896401851806
6.9E9 -0.3862369271533348 -0.9214926191914913
6.95E9 -0.5958638559369219 -0.8023694334732954
7.0E9 -0.7708654278543041 -0.6364370616920952
7.05E9 -0.9010054795368178 -0.43335278377678793
7.1E9 -0.9786629989332 -0.20495973941145237
7.15E9 -0.9992861232316295 0.03540664762091413
7.2E9 -0.9616649400635057 0.2737032840701864
7.25E9 -0.8680055490319338 0.49600909806870846
7.3E9 -0.723797184080609 0.6893498026097021
7.35E9 -0.5374778057353771 0.8424610517597213
7.4E9 -0.31992941719094353 0.9464371870013459
7.45E9 -0.08384489773109838 0.995240620286235
7.5E9 0.15700910729567658 0.986054368110636
7.55E9 0.3885995356958152 0.9194464249426647
7.6E9 0.5974490434428511 0.799329747022479
7.65E9 0.7714193334039262 0.6327255858282969
7.7E9 0.9004120687409878 0.42934936457685646
7.75E9 0.9769514581952653 0.20104426341827178
7.8E9 0.9966184235998444 -0.038909878809284065
7.85E9 0.9583009408577567 -0.2765808179270614
7.9E9 0.8642281339111162 -0.49819213967546666
7.95E9 0.7198317243683086 -0.6908825622241639
8.0E9 0.5334657266118213 -0.8434352060352428
8.05E9 0.3159413304841655 -0.9469459806469889
8.1E9 0.07989982699134864 -0.9953536893621406
8.15E9 -0.1609215747891204 -0.9857986044511812
8.2E9 -0.3924865319314925 -0.9187962506450593
8.25E9 -0.6012759541351267 -0.7982186937317979
8.3E9 -0.7750820118788975 -0.6310870673369386
8.35E9 -0.903758035763572 -0.4271777334117884
8.4E9 -0.9798538166490687 -0.19837872535789605
8.45E9 -0.9989196115076325 0.04204768306687843
8.5E9 -0.9597655213230617 0.2800794541258042
8.55E9 -0.8646531205353762 0.5017832794474758
8.6E9 -0.719147543682205 0.6941937820894933
8.65E9 -0.5317654234202993 0.8460758926550629
8.7E9 -0.3134672493096857 0.9485764984210121
8.75E9 -0.07701163155272948 0.9957373401219981
8.8E9 0.16379056235098713 0.9848355964657449
8.85E9 0.3948680001738472 0.9165455164002136
8.9E9 0.6027089362436939 0.7949520883398713
8.95E9 0.7753482000534799 0.6273659101321857
9.0E9 0.9030572877551976 0.4233438159142644
9.05E9 0.9782102402342159 0.19455981096659244
9.1E9 0.9963550071872107 -0.0455888165136543
9.15E9 0.9564510417226675 -0.2830989653594641
9.2E9 0.860824310679687 -0.5041539786398989
9.25E9 0.715025522157599 -0.6958931075001673
9.3E9 0.5275197359223677 -0.84714501419588
9.35E9 0.30921123746896556 -0.9490769536073751
9.4E9 0.07282319192397839 -0.9957251188997491
9.45E9 -0.16785339364587593 -0.9843588413913085
9.5E9 -0.3987252648120723 -0.9156330853039605
9.55E9 -0.6063229593312419 -0.7938509050068395
9.6E9 -0.7791100683016889 -0.6258922299005083
9.65E9 -0.9066333044319719 -0.42113576676732656
9.7E9 -0.9812689317695034 -0.1916908362742622
9.75E9 -0.998659607177478 0.048978102599298405
9.8E9 -0.9577948421808395 0.28679268923570267
9.85E9 -0.8610661834482253 0.5078470509968994
9.9E9 -0.7141300964077599 0.6992086281263884
9.95E9 -0.525612418695634 0.8496508564849615
1.0E10 -0.3066663423041003 0.9504277728413686
1000000000 0.12496161132701858 0.990762357716799
1050000000 0.35857245855735337 0.9317054683043726
1100000000 0.5711967747806551 0.818449218078161
1150000000 0.750486369028123 0.6576115029251194
1200000000 0.8860408981664947 0.4585628275500077
1250000000 0.9700042867004147 0.23287962647530658
1300000000 0.9975135776505838 -0.006326475494352845
1350000000 0.9669760477230533 -0.24516518256112804
1400000000 0.8801598347481424 -0.46976737444046246
1450000000 0.7420932857492826 -0.6670837631425427
1500000000 0.5607783633124511 -0.8256379039576585
1550000000 0.3467333839930431 -0.9361912881232677
1600000000 0.1123897285747944 -0.9922825303454108
1650000000 -0.12862445435996275 -0.990608989703715
1700000000 -0.3622735905866161 -0.9312273867933133
1750000000 -0.5749320919545874 -0.8175598416446719
1800000000 -0.7541822341903566 -0.6562028393842496
1850000000 -0.8895450365434737 -0.4565483490850514
1900000000 -0.9730998073242033 -0.2302379418142897
1950000000 -0.9999541353045283 0.009518554560422285
2000000000 -0.968534942546821 0.24871940864338443
2050000000 -0.8806822284274509 0.4733955065812192
2100000000 -0.7415395495774573 0.6704329190365469
2.15E9 -0.5592481583782248 0.8283435175146713
2.2E9 -0.34446407111099 0.9379371656614837
2.25E9 -0.10972822400236525 0.9928556091733057
2.3E9 0.13127146527032904 0.9899372749766141
2.35E9 0.36450140767098155 0.9293929974300479
2.4E9 0.5763994014368319 0.814784365993668
2.45E9 0.7546599055136561 0.6528081040205542
2.5E9 0.888942836054488 0.4529009126364978
2.55E9 0.9714663974395944 0.22668897051101078
2.6E9 0.9974515522098187 -0.012685636840656428
2.65E9 0.9653942296613469 -0.25132312682387836
2.7E9 0.8771508108164693 -0.4753663351026942
2.75E9 0.7378323937088489 -0.6717986097590007
2.8E9 0.555513461732024 -0.8291948865871286
2.85E9 0.34077048886129424 -0.9383837938817866
2.9E9 0.1060753441588826 -0.9929829746241865
2.95E9 -0.13492330738726252 -0.9897761824547825
3.0E9 -0.36819052514171297 -0.9289089637097927
3.05E9 -0.580122494699356 -0.8138896188492707
3.1E9 -0.7583432048308059 -0.6513932264315654
3.15E9 -0.8924329930441056 -0.4508782268979329
3.2E9 -0.9745447416543263 -0.224036667421669
3.25E9 -0.9998696793866314 0.015890128765581792
3.3E9 -0.9669236307636272 0.2548898305544591
3.35E9 -0.8776356115851608 0.47900433786174246
3.4E9 -0.737233111245081 0.6751518102282603
3.45E9 -0.5539312902710458 0.8318955031953744
3.5E9 -0.33844566057229186 0.9401130277005083
3.55E9 -0.10335867545506083 0.9935263166168368
3.6E9 0.13762072848007634 0.9890617327611922
3.65E9 0.3704597492661039 0.927020611662539
3.7E9 0.5816187806933287 0.8110522462958155
3.75E9 0.7588353714742091 0.6479330550517499
3.8E9 0.8918304670139214 0.4471666944484284
3.85E9 0.9728976072189877 0.22042960448184587
3.9E9 0.9973429194541226 -0.019105498957858687
3.95E9 0.9637522908319586 -0.2575295864324105
4.0E9 0.8740715661580669 -0.4809981117901476
4.05E9 0.7334955869065883 -0.6765281065204294
4.1E9 0.5501719931778988 -0.8327472337644878
4.15E9 0.3347355981070365 -0.9405527740231817
4.2E9 0.09969843895689082 -0.9936429130889085
4.25E9 -0.14127110192709474 -0.9888891259154937
4.3E9 -0.37413989036888307 -0.9265267537269545
4.35E9 -0.585327257271461 -0.8101507817200446
4.4E9 -0.7625002726598629 -0.6465149099871681
4.45E9 -0.895299786715351 -0.44514368519941394
4.5E9 -0.9759531813269743 -0.21777901091519913
4.55E9 -0.9997359706403245 0.022307028786283895
4.6E9 -0.9652532933507308 0.26109225476935216
4.65E9 -0.8745234195787636 0.48463030769716053
4.7E9 -0.7328578720217406 0.6798721315178038
4.75E9 -0.5485456908324797 0.8354330183093766
4.8E9 -0.33236174098708837 0.9422588965802572
4.85E9 -0.09692979826172739 0.9941523355532053
4.9E9 0.14402032971416823 0.9881279845355823
4.95E9 0.3764566649831995 0.924578043960303
5.0E9 0.5868621679471783 0.8072400400002403
5.05E9 0.7630175509015711 0.6429708797031497
5.1E9 0.8947051984354097 0.44134219078437487
5.15E9 0.9742949214143511 0.21408169899016946
5.2E9 0.9971794949464847 -0.025606552863701577
5.25E9 0.9620365742242805 -0.2638042346519887
5.3E9 0.8709032071259526 -0.48668011155546315
5.35E9 0.7290592887320249 -0.6812861516644249
5.4E9 0.5447263861273174 -0.8363042234888669
5.45E9 0.32859801053243115 -0.9427017284034996
5.5E9 0.09322648710022251 -0.994258837288943
5.55E9 -0.14770016835504035 -0.9879362822927947
5.6E9 -0.38015106908906726 -0.9240609223960137
5.65E9 -0.5905697691519991 -0.8063162464621803
5.7E9 -0.7666683623662076 -0.6415361077019577
5.75E9 -0.8981509046342611 -0.4393117855610781
5.8E9 -0.9773220588625104 -0.21143428313215154
5.85E9 -0.9995435439554309 0.028795516464688326
5.9E9 -0.963510338236222 0.26734786617924894
5.95E9 -0.8713294069689033 0.490289789913263
6.0E9 -0.728395495051374 0.6846056449985154
6.05E9 -0.5430712241090232 0.8389626739402486
6.1E9 -0.3261913577419856 0.9443750288798308
6.15E9 -0.09042212703661523 0.9947265973017295
6.2E9 0.15048493014269085 0.9871222153789916
6.25E9 0.38249921340076565 0.9220476406166281
6.3E9 0.59212868585616 0.8033306426483389
6.35E9 0.7672003806194347 0.6379084619165898
6.4E9 0.8975598974983345 0.4354186122296111
6.45E9 0.9756527985905422 0.20763804625804916
6.5E9 0.9969567271156663 -0.03219814992955937
6.55E9 0.9602398880936086 -0.2701605494989573
6.6E9 0.8676313323252178 -0.49242831048913516
6.65E9 0.7244994123691719 -0.6860860278983147
6.7E9 0.5391449336611845 -0.8398701161418041
6.75E9 0.32232492137189334 -0.9448224837110035
6.8E9 0.08663279021889779 -0.9948126261667142
6.85E9 -0.1542284862164973 -0.986896401851806
6.9E9 -0.3862369271533348 -0.9214926191914913
6.95E9 -0.5958638559369219 -0.8023694334732954
7.0E9 -0.7708654278543041 -0.6364370616920952
7.05E9 -0.9010054795368178 -0.43335278377678793
7.1E9 -0.9786629989332 -0.20495973941145237
7.15E9 -0.9992861232316295 0.03540664762091413
7.2E9 -0.9616649400635057 0.2737032840701864
7.25E9 -0.8680055490319338 0.49600909806870846
7.3E9 -0.723797184080609 0.6893498026097021
7.35E9 -0.5374778057353771 0.8424610517597213
7.4E9 -0.31992941719094353 0.9464371870013459
7.45E9 -0.08384489773109838 0.995240620286235
7.5E9 0.15700910729567658 0.986054368110636
7.55E9 0.3885995356958152 0.9194464249426647
7.6E9 0.5974490434428511 0.799329747022479
7.65E9 0.7714193334039262 0.6327255858282969
7.7E9 0.9004120687409878 0.42934936457685646
7.75E9 0.9769514581952653 0.20104426341827178
7.8E9 0.9966184235998444 -0.038909878809284065
7.85E9 0.9583009408577567 -0.2765808179270614
7.9E9 0.8642281339111162 -0.49819213967546666
7.95E9 0.7198317243683086 -0.6908825622241639
8.0E9 0.5334657266118213 -0.8434352060352428
8.05E9 0.3159413304841655 -0.9469459806469889
8.1E9 0.07989982699134864 -0.9953536893621406
8.15E9 -0.1609215747891204 -0.9857986044511812
8.2E9 -0.3924865319314925 -0.9187962506450593
8.25E9 -0.6012759541351267 -0.7982186937317979
8.3E9 -0.7750820118788975 -0.6310870673369386
8.35E9 -0.903758035763572 -0.4271777334117884
8.4E9 -0.9798538166490687 -0.19837872535789605
8.45E9 -0.9989196115076325 0.04204768306687843
8.5E9 -0.9597655213230617 0.2800794541258042
8.55E9 -0.8646531205353762 0.5017832794474758
8.6E9 -0.719147543682205 0.6941937820894933
8.65E9 -0.5317654234202993 0.8460758926550629
8.7E9 -0.3134672493096857 0.9485764984210121
8.75E9 -0.07701163155272948 0.9957373401219981
8.8E9 0.16379056235098713 0.9848355964657449
8.85E9 0.3948680001738472 0.9165455164002136
8.9E9 0.6027089362436939 0.7949520883398713
8.95E9 0.7753482000534799 0.6273659101321857
9.0E9 0.9030572877551976 0.4233438159142644
9.05E9 0.9782102402342159 0.19455981096659244
9.1E9 0.9963550071872107 -0.0455888165136543
9.15E9 0.9564510417226675 -0.2830989653594641
9.2E9 0.860824310679687 -0.5041539786398989
9.25E9 0.715025522157599 -0.6958931075001673
9.3E9 0.5275197359223677 -0.84714501419588
9.35E9 0.30921123746896556 -0.9490769536073751
9.4E9 0.07282319192397839 -0.9957251188997491
9.45E9 -0.16785339364587593 -0.9843588413913085
9.5E9 -0.3987252648120723 -0.9156330853039605
9.55E9 -0.6063229593312419 -0.7938509050068395
9.6E9 -0.7791100683016889 -0.6258922299005083
9.65E9 -0.9066333044319719 -0.42113576676732656
9.7E9 -0.9812689317695034 -0.1916908362742622
9.75E9 -0.998659607177478 0.048978102599298405
9.8E9 -0.9577948421808395 0.28679268923570267
9.85E9 -0.8610661834482253 0.5078470509968994
9.9E9 -0.7141300964077599 0.6992086281263884
9.95E9 -0.525612418695634 0.8496508564849615
1.0E10 -0.3066663423041003 0.9504277728413686
1000000000 0.12496161132701858 0.990762357716799
1050000000 0.35857245855735337 0.9317054683043726
1100000000 0.5711967747806551 0.818449218078161
1150000000 0.750486369028123 0.6576115029251194
1200000000 0.8860408981664947 0.4585628275500077
1250000000 0.9700042867004147 0.23287962647530658
1300000000 0.9975135776505838 -0.006326475494352845
1350000000 0.9669760477230533 -0.24516518256112804
1400000000 0.8801598347481424 -0.46976737444046246
1450000000 0.7420932857492826 -0.6670837631425427
1500000000 0.5607783633124511 -0.8256379039576585
1550000000 0.3467333839930431 -0.9361912881232677
1600000000 0.1123897285747944 -0.9922825303454108
1650000000 -0.12862445435996275 -0.990608989703715
1700000000 -0.3622735905866161 -0.9312273867933133
1750000000 -0.5749320919545874 -0.8175598416446719
1800000000 -0.7541822341903566 -0.6562028393842496
1850000000 -0.8895450365434737 -0.4565483490850514
1900000000 -0.9730998073242033 -0.2302379418142897
1950000000 -0.9999541353045283 0.009518554560422285
2000000000 -0.968534942546821 0.24871940864338443
2050000000 -0.8806822284274509 0.4733955065812192
2100000000 -0.7415395495774573 0.6704329190365469
2.15E9 -0.5592481583782248 0.8283435175146713
2.2E9 -0.34446407111099 0.9379371656614837
2.25E9 -0.10972822400236525 0.9928556091733057
2.3E9 0.13127146527032904 0.9899372749766141
2.35E9 0.36450140767098155 0.9293929974300479
2.4E9 0.5763994014368319 0.814784365993668
2.45E9 0.7546599055136561 0.6528081040205542
2.5E9 0.888942836054488 0.4529009126364978
2.55E9 0.9714663974395944 0.22668897051101078
2.6E9 0.9974515522098187 -0.012685636840656428
2.65E9 0.9653942296613469 -0.25132312682387836
2.7E9 0.8771508108164693 -0.4753663351026942
2.75E9 0.7378323937088489 -0.6717986097590007
2.8E9 0.555513461732024 -0.8291948865871286
2.85E9 0.34077048886129424 -0.9383837938817866
2.9E9 0.1060753441588826 -0.9929829746241865
2.95E9 -0.13492330738726252 -0.9897761824547825
3.0E9 -0.36819052514171297 -0.9289089637097927
3.05E9 -0.580122494699356 -0.8138896188492707
3.1E9 -0.7583432048308059 -0.6513932264315654
3.15E9 -0.8924329930441056 -0.4508782268979329
3.2E9 -0.9745447416543263 -0.224036667421669
3.25E9 -0.9998696793866314 0.015890128765581792
3.3E9 -0.9669236307636272 0.2548898305544591
3.35E9 -0.8776356115851608 0.47900433786174246
3.4E9 -0.737233111245081 0.6751518102282603
3.45E9 -0.5539312902710458 0.8318955031953744
3.5E9 -0.33844566057229186 0.9401130277005083
3.55E9 -0.10335867545506083 0.9935263166168368
3.6E9 0.13762072848007634 0.9890617327611922
3.65E9 0.3704597492661039 0.927020611662539
3.7E9 0.5816187806933287 0.8110522462958155
3.75E9 0.7588353714742091 0.6479330550517499
3.8E9 0.8918304670139214 0.4471666944484284
3.85E9 0.9728976072189877 0.22042960448184587
3.9E9 0.9973429194541226 -0.019105498957858687
3.95E9 0.9637522908319586 -0.2575295864324105
4.0E9 0.8740715661580669 -0.4809981117901476
4.05E9 0.7334955869065883 -0.6765281065204294
4.1E9 0.5501719931778988 -0.8327472337644878
4.15E9 0.3347355981070365 -0.9405527740231817
4.2E9 0.09969843895689082 -0.9936429130889085
4.25E9 -0.14127110192709474 -0.9888891259154937
4.3E9 -0.37413989036888307 -0.9265267537269545
4.35E9 -0.585327257271461 -0.8101507817200446
4.4E9 -0.7625002726598629 -0.6465149099871681
4.45E9 -0.895299786715351 -0.44514368519941394
4.5E9 -0.9759531813269743 -0.21777901091519913
4.55E9 -0.9997359706403245 0.022307028786283895
4.6E9 -0.9652532933507308 0.26109225476935216
4.65E9 -0.8745234195787636 0.48463030769716053
4.7E9 -0.7328578720217406 0.6798721315178038
4.75E9 -0.5485456908324797 0.8354330183093766
4.8E9 -0.33236174098708837 0.9422588965802572
4.85E9 -0.09692979826172739 0.9941523355532053
4.9E9 0.14402032971416823 0.9881279845355823
4.95E9 0.3764566649831995 0.924578043960303
5.0E9 0.5868621679471783 0.8072400400002403
5.05E9 0.7630175509015711 0.6429708797031497
5.1E9 0.8947051984354097 0.44134219078437487
5.15E9 0.9742949214143511 0.21408169899016946
5.2E9 0.9971794949464847 -0.025606552863701577
5.25E9 0.9620365742242805 -0.2638042346519887
5.3E9 0.8709032071259526 -0.48668011155546315
5.35E9 0.7290592887320249 -0.6812861516644249
5.4E9 0.5447263861273174 -0.8363042234888669
5.45E9 0.32859801053243115 -0.9427017284034996
5.5E9 0.09322648710022251 -0.994258837288943
5.55E9 -0.14770016835504035 -0.9879362822927947
5.6E9 -0.38015106908906726 -0.9240609223960137
5.65E9 -0.5905697691519991 -0.8063162464621803
5.7E9 -0.7666683623662076 -0.6415361077019577
5.75E9 -0.8981509046342611 -0.4393117855610781
5.8E9 -0.9773220588625104 -0.21143428313215154
5.85E9 -0.9995435439554309 0.028795516464688326
5.9E9 -0.963510338236222 0.26734786617924894
5.95E9 -0.8713294069689033 0.490289789913263
6.0E9 -0.728395495051374 0.6846056449985154
6.05E9 -0.5430712241090232 0.8389626739402486
6.1E9 -0.3261913577419856 0.9443750288798308
6.15E9 -0.09042212703661523 0.9947265973017295
6.2E9 0.15048493014269085 0.9871222153789916
6.25E9 0.38249921340076565 0.9220476406166281
6.3E9 0.59212868585616 0.8033306426483389
6.35E9 0.7672003806194347 0.6379084619165898
6.4E9 0.8975598974983345 0.4354186122296111
6.45E9 0.9756527985905422 0.20763804625804916
6.5E9 0.9969567271156663 -0.03219814992955937
6.55E9 0.9602398880936086 -0.2701605494989573
6.6E9 0.8676313323252178 -0.49242831048913516
6.65E9 0.7244994123691719 -0.6860860278983147
6.7E9 0.5391449336611845 -0.8398701161418041
6.75E9 0.32232492137189334 -0.9448224837110035
6.8E9 0.08663279021889779 -0.9948126261667142
6.85E9 -0.1542284862164973 -0.986896401851806
6.9E9 -0.3862369271533348 -0.9214926191914913
6.95E9 -0.5958638559369219 -0.8023694334732954
7.0E9 -0.7708654278543041 -0.6364370616920952
7.05E9 -0.9010054795368178 -0.43335278377678793
7.1E9 -0.9786629989332 -0.20495973941145237
7.15E9 -0.9992861232316295 0.03540664762091413
7.2E9 -0.9616649400635057 0.2737032840701864
7.25E9 -0.8680055490319338 0.49600909806870846
7.3E9 -0.723797184080609 0.6893498026097021
7.35E9 -0.5374778057353771 0.8424610517597213
7.4E9 -0.31992941719094353 0.9464371870013459
7.45E9 -0.08384489773109838 0.995240620286235
7.5E9 0.15700910729567658 0.986054368110636
7.55E9 0.3885995356958152 0.9194464249426647
7.6E9 0.5974490434428511 0.799329747022479
7.65E9 0.7714193334039262 0.6327255858282969
7.7E9 0.9004120687409878 0.42934936457685646
7.75E9 0.9769514581952653 0.20104426341827178
7.8E9 0.9966184235998444 -0.038909878809284065
7.85E9 0.9583009408577567 -0.2765808179270614
7.9E9 0.8642281339111162 -0.49819213967546666
7.95E9 0.7198317243683086 -0.6908825622241639
8.0E9 0.5334657266118213 -0.8434352060352428
8.05E9 0.3159413304841655 -0.9469459806469889
8.1E9 0.07989982699134864 -0.9953536893621406
8.15E9 -0.1609215747891204 -0.9857986044511812
8.2E9 -0.3924865319314925 -0.9187962506450593
8.25E9 -0.6012759541351267 -0.7982186937317979
8.3E9 -0.7750820118788975 -0.6310870673369386
8.35E9 -0.903758035763572 -0.4271777334117884
8.4E9 -0.9798538166490687 -0.19837872535789605
8.45E9 -0.9989196115076325 0.04204768306687843
8.5E9 -0.9597655213230617 0.2800794541258042
8.55E9 -0.8646531205353762 0.5017832794474758
8.6E9 -0.719147543682205 0.6941937820894933
8.65E9 -0.5317654234202993 0.8460758926550629
8.7E9 -0.3134672493096857 0.9485764984210121
8.75E9 -0.07701163155272948 0.9957373401219981
8.8E9 0.16379056235098713 0.9848355964657449
8.85E9 0.3948680001738472 0.9165455164002136
8.9E9 0.6027089362436939 0.7949520883398713
8.95E9 0.7753482000534799 0.6273659101321857
9.0E9 0.9030572877551976 0.4233438159142644
9.05E9 0.9782102402342159 0.19455981096659244
9.1E9 0.9963550071872107 -0.0455888165136543
9.15E9 0.9564510417226675 -0.2830989653594641
9.2E9 0.860824310679687 -0.5041539786398989
9.25E9 0.715025522157599 -0.6958931075001673
9.3E9 0.5275197359223677 -0.84714501419588
9.35E9 0.30921123746896556 -0.9490769536073751
9.4E9 0.07282319192397839 -0.9957251188997491
9.45E9 -0.16785339364587593 -0.9843588413913085
9.5E9 -0.3987252648120723 -0.9156330853039605
9.55E9 -0.6063229593312419 -0.7938509050068395
9.6E9 -0.7791100683016889 -0.6258922299005083
9.65E9 -0.9066333044319719 -0.42113576676732656
9.7E9 -0.9812689317695034 -0.1916908362742622
9.75E9 -0.998659607177478 0.048978102599298405
9.8E9 -0.9577948421808395 0.28679268923570267
9.85E9 -0.8610661834482253 0.5078470509968994
9.9E9 -0.7141300964077599 0.6992086281263884
9.95E9 -0.525612418695634 0.8496508564849615
1.0E10 -0.3066663423041003 0.9504277728413686
1000000000 0.12496161132701858 0.990762357716799
1050000000 0.35857245855735337 0.9317054683043726
1100000000 0.5711967747806551 0.818449218078161
1150000000 0.750486369028123 0.6576115029251194
1200000000 0.8860408981664947 0.4585628275500077
1250000000 0.9700042867004147 0.23287962647530658
1300000000 0.9975135776505838 -0.006326475494352845
1350000000 0.9669760477230533 -0.24516518256112804
1400000000 0.8801598347481424 -0.46976737444046246
1450000000 0.7420932857492826 -0.6670837631425427
1500000000 0.5607783633124511 -0.8256379039576585
1550000000 0.3467333839930431 -0.9361912881232677
1600000000 0.1123897285747944 -0.9922825303454108
1650000000 -0.12862445435996275 -0.990608989703715
1700000000 -0.3622735905866161 -0.9312273867933133
1750000000 -0.5749320919545874 -0.8175598416446719
1800000000 -0.7541822341903566 -0.6562028393842496
1850000000 -0.8895450365434737 -0.4565483490850514
1900000000 -0.9730998073242033 -0.2302379418142897
1950000000 -0.9999541353045283 0.009518554560422285
2000000000 -0.968534942546821 0.24871940864338443
2050000000 -0.8806822284274509 0.4733955065812192
2100000000 -0.7415395495774573 0.6704329190365469
2.15E9 -0.5592481583782248 0.8283435175146713
2.2E9 -0.34446407111099 0.9379371656614837
2.25E9 -0.10972822400236525 0.9928556091733057
2.3E9 0.13127146527032904 0.9899372749766141
2.35E9 0.36450140767098155 0.9293929974300479
2.4E9 0.5763994014368319 0.814784365993668
2.45E9 0.7546599055136561 0.6528081040205542
2.5E9 0.888942836054488 0.4529009126364978
2.55E9 0.9714663974395944 0.22668897051101078
2.6E9 0.9974515522098187 -0.012685636840656428
2.65E9 0.9653942296613469 -0.25132312682387836
2.7E9 0.8771508108164693 -0.4753663351026942
2.75E9 0.7378323937088489 -0.6717986097590007
2.8E9 0.555513461732024 -0.8291948865871286
2.85E9 0.34077048886129424 -0.9383837938817866
2.9E9 0.1060753441588826 -0.9929829746241865
2.95E9 -0.13492330738726252 -0.9897761824547825
3.0E9 -0.36819052514171297 -0.9289089637097927
3.05E9 -0.580122494699356 -0.8138896188492707
3.1E9 -0.7583432048308059 -0.6513932264315654
3.15E9 -0.8924329930441056 -0.4508782268979329
3.2E9 -0.9745447416543263 -0.224036667421669
3.25E9 -0.9998696793866314 0.015890128765581792
3.3E9 -0.9669236307636272 0.2548898305544591
3.35E9 -0.8776356115851608 0.47900433786174246
3.4E9 -0.737233111245081 0.6751518102282603
3.45E9 -0.5539312902710458 0.8318955031953744
3.5E9 -0.33844566057229186 0.9401130277005083
3.55E9 -0.10335867545506083 0.9935263166168368
3.6E9 0.13762072848007634 0.9890617327611922
3.65E9 0.3704597492661039 0.927020611662539
3.7E9 0.5816187806933287 0.8110522462958155
3.75E9 0.7588353714742091 0.6479330550517499
3.8E9 0.8918304670139214 0.4471666944484284
3.85E9 0.9728976072189877 0.22042960448184587
3.9E9 0.9973429194541226 -0.019105498957858687
3.95E9 0.9637522908319586 -0.2575295864324105
4.0E9 0.8740715661580669 -0.4809981117901476
4.05E9 0.7334955869065883 -0.6765281065204294
4.1E9 0.5501719931778988 -0.8327472337644878
4.15E9 0.3347355981070365 -0.9405527740231817
4.2E9 0.09969843895689082 -0.9936429130889085
4.25E9 -0.14127110192709474 -0.9888891259154937
4.3E9 -0.37413989036888307 -0.9265267537269545
4.35E9 -0.585327257271461 -0.8101507817200446
4.4E9 -0.7625002726598629 -0.6465149099871681
4.45E9 -0.895299786715351 -0.44514368519941394
4.5E9 -0.9759531813269743 -0.21777901091519913
4.55E9 -0.9997359706403245 0.022307028786283895
4.6E9 -0.9652532933507308 0.26109225476935216
4.65E9 -0.8745234195787636 0.48463030769716053
4.7E9 -0.7328578720217406 0.6798721315178038
4.75E9 -0.5485456908324797 0.8354330183093766
4.8E9 -0.33236174098708837 0.9422588965802572
4.85E9 -0.09692979826172739 0.9941523355532053
4.9E9 0.14402032971416823 0.9881279845355823
4.95E9 0.3764566649831995 0.924578043960303
5.0E9 0.5868621679471783 0.8072400400002403
5.05E9 0.7630175509015711 0.6429708797031497
5.1E9 0.8947051984354097 0.44134219078437487
5.15E9 0.9742949214143511 0.21408169899016946
5.2E9 0.9971794949464847 -0.025606552863701577
5.25E9 0.9620365742242805 -0.2638042346519887
5.3E9 0.8709032071259526 -0.48668011155546315
5.35E9 0.7290592887320249 -0.6812861516644249
5.4E9 0.5447263861273174 -0.8363042234888669
5.45E9 0.32859801053243115 -0.9427017284034996
5.5E9 0.09322648710022251 -0.994258837288943
5.55E9 -0.14770016835504035 -0.9879362822927947
5.6E9 -0.38015106908906726 -0.9240609223960137
5.65E9 -0.5905697691519991 -0.8063162464621803
5.7E9 -0.7666683623662076 -0.6415361077019577
5.75E9 -0.8981509046342611 -0.4393117855610781
5.8E9 -0.9773220588625104 -0.21143428313215154