% Model:              cali 3.02 0.91mm 校准-短路.mph
% Version:            COMSOL 6.2.0.290
% Date:               Sep 24 2024, 20:46
% Table:              表格 1 - 全局计算 1
% ts_index               freq (Hz)                real(emw.S11) (1)        imag(emw.S11) (1)
1000000000 -0.11153730418649613 -0.9926571549340887
1050000000 -0.345511487685605 -0.9375540818700179
1100000000 -0.5595885868334864 -0.8281149879366773
1150000000 -0.7413415886732024 -0.6706524609867909
1200000000 -0.8802076931790037 -0.47427731849177274
1250000000 -0.9681089695600278 -0.25037246386571516
1300000000 -0.9999287374478625 -0.01193081163814573
1350000000 -0.9738140981351612 0.22720369796199688
1400000000 -0.891285654164915 0.4531465128225485
1450000000 -0.7571475013921859 0.6527853533675989
1500000000 -0.5792031548774571 0.8145464383713508
1550000000 -0.36779521563285167 0.929068071729735
1600000000 -0.1351973855599903 0.9897417930062153
1650000000 0.10510386890325024 0.9930899632488744
1700000000 0.3391946523499943 0.9389590786826671
1750000000 0.5535394832066322 0.8305194570610024
1800000000 0.7357609337999791 0.6740734130167867
1850000000 0.8753488514767181 0.4786849092376425
1900000000 0.9642597845810464 0.255653363229733
1950000000 0.9973739720536905 0.017862391825776033
2000000000 0.9727854126174919 -0.220959472535888
2050000000 0.89190965917245 -0.44702479798328665
2100000000 0.7594036788586653 -0.6472764943974401
2.15E9 0.5829020108539263 -0.8101366285246843
2.2E9 0.37258319137499574 -0.926173084732503
2.25E9 0.14058963664125343 -0.9886463138042855
2.3E9 -0.09966751656423974 -0.9939043760037569
2.35E9 -0.3342801556673714 -0.9416023161771128
2.4E9 -0.5496479259360787 -0.8347313701420284
2.45E9 -0.733269489774194 -0.6794542084911108
2.5E9 -0.8744736365786863 -0.48475382910067827
2.55E9 -0.9650462504830135 -0.26191511666458045
2.6E9 -0.99971475015285 -0.023868697630531302
2.65E9 -0.9764599219030132 0.21556429278258765
2.7E9 -0.8966355839183907 0.44248130296302696
2.75E9 -0.7648885173950304 0.6437124388138195
2.8E9 -0.5888836842520686 0.8075902897660111
2.85E9 -0.37885195604513416 0.9246292591073527
2.9E9 -0.14698848277003657 0.9880741954240468
2.95E9 0.09326134195395906 0.9942866925497781
3.0E9 0.32798516195078276 0.9429477940209425
3.05E9 0.5436097400384563 0.8370671820256883
3.1E9 0.7276830416541054 0.6828004320426521
3.15E9 0.8695879033200395 0.48908684232545074
3.2E9 0.9611476213278038 0.2671301149031377
3.25E9 0.9970904675216222 0.029752349395927788
3.3E9 0.9753482523809937 -0.20934185345432038
3.35E9 0.8971731558824093 -0.4363500376475778
3.4E9 0.7670667220956233 -0.6381618528004169
3.45E9 0.5925247942064988 -0.8031106679491696
3.5E9 0.38361190303220916 -0.9216450094590538
3.55E9 0.1523878568459967 -0.9868818679696816
3.6E9 -0.0877823765284461 -0.9950097804345269
3.65E9 -0.32299738533068506 -0.9455173216086005
3.7E9 -0.5396232844445282 -0.8412320065646169
3.75E9 -0.7250866063646564 -0.68816523964473
3.8E9 -0.8686094144588407 -0.4951703115302903
3.85E9 -0.9618424559624499 -0.2734318595148636
3.9E9 -0.999357612859784 -0.03581587413343024
3.95E9 -0.9789690690234827 0.20388156691847864
4.0E9 -0.9018630189157495 0.43174189177940403
4.05E9 -0.7725276830023421 0.6345391770002808
4.1E9 -0.5984879797032647 0.8005135193213576
4.15E9 -0.3898614679863981 0.9200561175855608
4.2E9 -0.15876318801604833 0.98626544054765
4.25E9 0.08140400052805444 0.9953423212804261
4.3E9 0.31673062069352653 0.9468021327798356
4.35E9 0.5336069112069325 0.8434935385875808
4.4E9 0.7195073844815898 0.6914248511440264
4.45E9 0.8637089690488274 0.4994100269501268
4.5E9 0.9579027627710719 0.27855618095623513
4.55E9 0.9966660380147531 0.04162277879521409
4.6E9 0.9777692199505932 -0.1977109103400196
4.65E9 0.9023016416765973 -0.4256290911473576
4.7E9 0.7746095467519698 -0.6289700714893388
4.75E9 0.6020496867106069 -0.79598056338255
4.8E9 0.39457159852441337 -0.91699173194576
4.85E9 0.16415089125416138 -0.9849788582403157
4.9E9 -0.07589576085291601 -0.9959722504609115
4.95E9 -0.3116761541993025 -0.9492946683381303
5.0E9 -0.5295255449086902 -0.8476097976473596
5.05E9 -0.7168009118758976 -0.6967768650339159
5.1E9 -0.8626198088349414 -0.5055177978889156
5.15E9 -0.9584994721048701 -0.2849147377529754
5.2E9 -0.9988571211303218 -0.047766425655633916
5.25E9 -0.9813403914309788 0.19215882804772183
5.3E9 -0.9069671213598552 0.42092896600808144
5.35E9 -0.780065578489503 0.6252641614776273
5.4E9 -0.6080187813910851 0.793313571859863
5.45E9 -0.4008288854308452 0.9153460967102401
5.5E9 -0.17052872005814346 0.9843140969279816
5.55E9 0.0695233145396216 0.9962573749028221
5.6E9 0.30542224963491305 0.9505249617141764
5.65E9 0.5235230845962633 0.8498035852315692
5.7E9 0.7112278388117134 0.6999532701266056
5.75E9 0.8577082348510587 0.509661593025811
5.8E9 0.9545237014902495 0.2899380678810569
5.85E9 0.9961009414525993 0.053478519270058825
5.9E9 0.9800493602485972 -0.18606417165058137
5.95E9 0.907295728200976 -0.414862045260389
6.0E9 0.7820311203244945 -0.6197034126288203
6.05E9 0.6114730668159055 -0.7887498500197476
6.1E9 0.40545559743611065 -0.9122168019246809
6.15E9 0.17586912360122664 -0.9829394755401965
6.2E9 -0.06401950543792267 -0.9967914016687328
6.25E9 -0.30032932808280394 -0.952930584239528
6.3E9 -0.5193671576267537 -0.8538573475419371
6.35E9 -0.7084230136924771 -0.7052784661110225
6.4E9 -0.8565124498687084 -0.5157834198729012
6.45E9 -0.9550213314302516 -0.2963499985252517
6.5E9 -0.9982137244312638 -0.059707212946740765
6.55E9 -0.983571401044485 0.18040725797824947
6.6E9 -0.9119436126326921 0.41005081784281433
6.65E9 -0.7874975540879975 0.6158924493104212
6.7E9 -0.6174724775642484 0.7859925674489853
6.75E9 -0.4117527550002937 0.9104992486025847
6.8E9 -0.1822863976096274 0.9822194012636782
6.85E9 0.05761519879381982 0.9970316470697473
6.9E9 0.2940538067840354 0.9541178380826904
6.95E9 0.513350935514964 0.8560014349322016
7.0E9 0.7028373007164603 0.7083925743156988
7.05E9 0.8515800685471024 0.5198507994758284
7.1E9 0.9510072052074453 0.3012864834667035
7.15E9 0.995394747928042 0.06533047736747415
7.2E9 0.9821908296372706 -0.17439183683560458
7.25E9 0.9121593606431979 -0.4040412796174912
7.3E9 0.7893359590461021 -0.6103570390475593
7.35E9 0.6207986366637919 -0.7814164603454982
7.4E9 0.416265529212596 -0.9073202729202866
7.45E9 0.18754125312068642 -0.9807647252251508
7.5E9 -0.05215809973422125 -0.9974677277869962
7.55E9 -0.28896416565342264 -0.9564235873792966
7.6E9 -0.5091571121067597 -0.8599700358391447
7.65E9 -0.6999621624109553 -0.7136616703288715
7.7E9 -0.8502952283272027 -0.5259551302777447
7.75E9 -0.9514131098145189 -0.3077226935658151
7.8E9 -0.9974286841696757 -0.07162172096327289
7.85E9 -0.9856592033143795 0.1686432937956263
7.9E9 -0.9167858319990059 0.39912216658438127
7.95E9 -0.7948142314639322 0.606435724020252
8.0E9 -0.6268384753439802 0.7785584115896628
8.05E9 -0.4226229315447255 0.9055196732112402
8.1E9 -0.19402801846751744 0.9799823306210815
8.15E9 0.045684875225005334 0.9976642377486414
8.2E9 0.28262715058242804 0.9575795342111972
8.25E9 0.5030892915699677 0.8620870669773245
8.3E9 0.6943325306515586 0.7167451574710807
8.35E9 0.8453205446260714 0.5299830929814802
8.4E9 0.9473501631831486 0.31260987455972966
8.45E9 0.9945464609921789 0.07718937879521963
8.5E9 0.9841955670273876 -0.16268212843444232
8.55E9 0.9168975798094117 -0.3931554285528452
8.6E9 0.7965316797925959 -0.6009213764618379
8.65E9 0.6300354803370039 -0.7739736021197223
8.7E9 0.42701048833587907 -0.9022985108700952
8.75E9 0.19917489319969237 -0.9784537950232883
8.8E9 -0.040306610673819424 -0.9980022415601196
8.85E9 -0.2775790487877262 -0.959775052318753
8.9E9 -0.4988970155873751 -0.8659479671730015
8.95E9 -0.6914223657172158 -0.721923853676875
9.0E9 -0.8439731348813821 -0.5360266055775583
9.05E9 -0.9476790411182888 -0.3190225386484152
9.1E9 -0.9965037593104752 -0.08349623412408032
9.15E9 -0.9876017339371668 0.1568828422175143
9.2E9 -0.9214871933402018 0.3881593855649572
9.25E9 -0.8020046074160896 0.5969089458432106
9.3E9 -0.6361022560456011 0.7710229820006819
9.35E9 -0.43342291258935206 0.9004150340697535
9.4E9 -0.2057369637399237 0.9776059626433787
9.45E9 0.033747238996851614 0.9981540980343517
9.5E9 0.27115399738959045 0.9609060699224181
9.55E9 0.4927459003541184 0.868055258835846
9.6E9 0.6857173279945216 0.725006396950863
9.65E9 0.8389303265928284 0.5400560772633188
9.7E9 0.9435515284509415 0.3239091592055401
9.75E9 0.9935550596620761 0.08905979464462338
9.8E9 0.9860642615369507 -0.15092728864761443
9.85E9 0.921514066461615 -0.3821947086300598
9.9E9 0.8036255688581971 -0.5913862177479313
9.95E9 0.6391943108212328 -0.7664123421493075
1.0E10 0.43770368423942885 -0.8971452844174289
1000000000 -0.11153730418649613 -0.9926571549340887
1050000000 -0.345511487685605 -0.9375540818700179
1100000000 -0.5595885868334864 -0.8281149879366773
1150000000 -0.7413415886732024 -0.6706524609867909
1200000000 -0.8802076931790037 -0.47427731849177274
1250000000 -0.9681089695600278 -0.25037246386571516
1300000000 -0.9999287374478625 -0.01193081163814573
1350000000 -0.9738140981351612 0.22720369796199688
1400000000 -0.891285654164915 0.4531465128225485
1450000000 -0.7571475013921859 0.6527853533675989
1500000000 -0.5792031548774571 0.8145464383713508
1550000000 -0.36779521563285167 0.929068071729735
1600000000 -0.1351973855599903 0.9897417930062153
1650000000 0.10510386890325024 0.9930899632488744
1700000000 0.3391946523499943 0.9389590786826671
1750000000 0.5535394832066322 0.8305194570610024
1800000000 0.7357609337999791 0.6740734130167867
1850000000 0.8753488514767181 0.4786849092376425
1900000000 0.9642597845810464 0.255653363229733
1950000000 0.9973739720536905 0.017862391825776033
2000000000 0.9727854126174919 -0.220959472535888
2050000000 0.89190965917245 -0.44702479798328665
2100000000 0.7594036788586653 -0.6472764943974401
2.15E9 0.5829020108539263 -0.8101366285246843
2.2E9 0.37258319137499574 -0.926173084732503
2.25E9 0.14058963664125343 -0.9886463138042855
2.3E9 -0.09966751656423974 -0.9939043760037569
2.35E9 -0.3342801556673714 -0.9416023161771128
2.4E9 -0.5496479259360787 -0.8347313701420284
2.45E9 -0.733269489774194 -0.6794542084911108
2.5E9 -0.8744736365786863 -0.48475382910067827
2.55E9 -0.9650462504830135 -0.26191511666458045
2.6E9 -0.99971475015285 -0.023868697630531302
2.65E9 -0.9764599219030132 0.21556429278258765
2.7E9 -0.8966355839183907 0.44248130296302696
2.75E9 -0.7648885173950304 0.6437124388138195
2.8E9 -0.5888836842520686 0.8075902897660111
2.85E9 -0.37885195604513416 0.9246292591073527
2.9E9 -0.14698848277003657 0.9880741954240468
2.95E9 0.09326134195395906 0.9942866925497781
3.0E9 0.32798516195078276 0.9429477940209425
3.05E9 0.5436097400384563 0.8370671820256883
3.1E9 0.7276830416541054 0.6828004320426521
3.15E9 0.8695879033200395 0.48908684232545074
3.2E9 0.9611476213278038 0.2671301149031377
3.25E9 0.9970904675216222 0.029752349395927788
3.3E9 0.9753482523809937 -0.20934185345432038
3.35E9 0.8971731558824093 -0.4363500376475778
3.4E9 0.7670667220956233 -0.6381618528004169
3.45E9 0.5925247942064988 -0.8031106679491696
3.5E9 0.38361190303220916 -0.9216450094590538
3.55E9 0.1523878568459967 -0.9868818679696816
3.6E9 -0.0877823765284461 -0.9950097804345269
3.65E9 -0.32299738533068506 -0.9455173216086005
3.7E9 -0.5396232844445282 -0.8412320065646169
3.75E9 -0.7250866063646564 -0.68816523964473
3.8E9 -0.8686094144588407 -0.4951703115302903
3.85E9 -0.9618424559624499 -0.2734318595148636
3.9E9 -0.999357612859784 -0.03581587413343024
3.95E9 -0.9789690690234827 0.20388156691847864
4.0E9 -0.9018630189157495 0.43174189177940403
4.05E9 -0.7725276830023421 0.6345391770002808
4.1E9 -0.5984879797032647 0.8005135193213576
4.15E9 -0.3898614679863981 0.9200561175855608
4.2E9 -0.15876318801604833 0.98626544054765
4.25E9 0.08140400052805444 0.9953423212804261
4.3E9 0.31673062069352653 0.9468021327798356
4.35E9 0.5336069112069325 0.8434935385875808
4.4E9 0.7195073844815898 0.6914248511440264
4.45E9 0.8637089690488274 0.4994100269501268
4.5E9 0.9579027627710719 0.27855618095623513
4.55E9 0.9966660380147531 0.04162277879521409
4.6E9 0.9777692199505932 -0.1977109103400196
4.65E9 0.9023016416765973 -0.4256290911473576
4.7E9 0.7746095467519698 -0.6289700714893388
4.75E9 0.6020496867106069 -0.79598056338255
4.8E9 0.39457159852441337 -0.91699173194576
4.85E9 0.16415089125416138 -0.9849788582403157
4.9E9 -0.07589576085291601 -0.9959722504609115
4.95E9 -0.3116761541993025 -0.9492946683381303
5.0E9 -0.5295255449086902 -0.8476097976473596
5.05E9 -0.7168009118758976 -0.6967768650339159
5.1E9 -0.8626198088349414 -0.5055177978889156
5.15E9 -0.9584994721048701 -0.2849147377529754
5.2E9 -0.9988571211303218 -0.047766425655633916
5.25E9 -0.9813403914309788 0.19215882804772183
5.3E9 -0.9069671213598552 0.42092896600808144
5.35E9 -0.780065578489503 0.6252641614776273
5.4E9 -0.6080187813910851 0.793313571859863
5.45E9 -0.4008288854308452 0.9153460967102401
5.5E9 -0.17052872005814346 0.9843140969279816
5.55E9 0.0695233145396216 0.9962573749028221
5.6E9 0.30542224963491305 0.9505249617141764
5.65E9 0.5235230845962633 0.8498035852315692
5.7E9 0.7112278388117134 0.6999532701266056
5.75E9 0.8577082348510587 0.509661593025811
5.8E9 0.9545237014902495 0.2899380678810569
5.85E9 0.9961009414525993 0.053478519270058825
5.9E9 0.9800493602485972 -0.18606417165058137
5.95E9 0.907295728200976 -0.414862045260389
6.0E9 0.7820311203244945 -0.6197034126288203
6.05E9 0.6114730668159055 -0.7887498500197476
6.1E9 0.40545559743611065 -0.9122168019246809
6.15E9 0.17586912360122664 -0.9829394755401965
6.2E9 -0.06401950543792267 -0.9967914016687328
6.25E9 -0.30032932808280394 -0.952930584239528
6.3E9 -0.5193671576267537 -0.8538573475419371
6.35E9 -0.7084230136924771 -0.7052784661110225
6.4E9 -0.8565124498687084 -0.5157834198729012
6.45E9 -0.9550213314302516 -0.2963499985252517
6.5E9 -0.9982137244312638 -0.059707212946740765
6.55E9 -0.983571401044485 0.18040725797824947
6.6E9 -0.9119436126326921 0.41005081784281433
6.65E9 -0.7874975540879975 0.6158924493104212
6.7E9 -0.6174724775642484 0.7859925674489853
6.75E9 -0.4117527550002937 0.9104992486025847
6.8E9 -0.1822863976096274 0.9822194012636782
6.85E9 0.05761519879381982 0.9970316470697473
6.9E9 0.2940538067840354 0.9541178380826904
6.95E9 0.513350935514964 0.8560014349322016
7.0E9 0.7028373007164603 0.7083925743156988
7.05E9 0.8515800685471024 0.5198507994758284
7.1E9 0.9510072052074453 0.3012864834667035
7.15E9 0.995394747928042 0.06533047736747415
7.2E9 0.9821908296372706 -0.17439183683560458
7.25E9 0.9121593606431979 -0.4040412796174912
7.3E9 0.7893359590461021 -0.6103570390475593
7.35E9 0.6207986366637919 -0.7814164603454982
7.4E9 0.416265529212596 -0.9073202729202866
7.45E9 0.18754125312068642 -0.9807647252251508
7.5E9 -0.05215809973422125 -0.9974677277869962
7.55E9 -0.28896416565342264 -0.9564235873792966
7.6E9 -0.5091571121067597 -0.8599700358391447
7.65E9 -0.6999621624109553 -0.7136616703288715
7.7E9 -0.8502952283272027 -0.5259551302777447
7.75E9 -0.9514131098145189 -0.3077226935658151
7.8E9 -0.9974286841696757 -0.07162172096327289
7.85E9 -0.9856592033143795 0.1686432937956263
7.9E9 -0.9167858319990059 0.39912216658438127
7.95E9 -0.7948142314639322 0.606435724020252
8.0E9 -0.6268384753439802 0.7785584115896628
8.05E9 -0.4226229315447255 0.9055196732112402
8.1E9 -0.19402801846751744 0.9799823306210815
8.15E9 0.045684875225005334 0.9976642377486414
8.2E9 0.28262715058242804 0.9575795342111972
8.25E9 0.5030892915699677 0.8620870669773245
8.3E9 0.6943325306515586 0.7167451574710807
8.35E9 0.8453205446260714 0.5299830929814802
8.4E9 0.9473501631831486 0.31260987455972966
8.45E9 0.9945464609921789 0.07718937879521963
8.5E9 0.9841955670273876 -0.16268212843444232
8.55E9 0.9168975798094117 -0.3931554285528452
8.6E9 0.7965316797925959 -0.6009213764618379
8.65E9 0.6300354803370039 -0.7739736021197223
8.7E9 0.42701048833587907 -0.9022985108700952
8.75E9 0.19917489319969237 -0.9784537950232883
8.8E9 -0.040306610673819424 -0.9980022415601196
8.85E9 -0.2775790487877262 -0.959775052318753
8.9E9 -0.4988970155873751 -0.8659479671730015
8.95E9 -0.6914223657172158 -0.721923853676875
9.0E9 -0.8439731348813821 -0.5360266055775583
9.05E9 -0.9476790411182888 -0.3190225386484152
9.1E9 -0.9965037593104752 -0.08349623412408032
9.15E9 -0.9876017339371668 0.1568828422175143
9.2E9 -0.9214871933402018 0.3881593855649572
9.25E9 -0.8020046074160896 0.5969089458432106
9.3E9 -0.6361022560456011 0.7710229820006819
9.35E9 -0.43342291258935206 0.9004150340697535
9.4E9 -0.2057369637399237 0.9776059626433787
9.45E9 0.033747238996851614 0.9981540980343517
9.5E9 0.27115399738959045 0.9609060699224181
9.55E9 0.4927459003541184 0.868055258835846
9.6E9 0.6857173279945216 0.725006396950863
9.65E9 0.8389303265928284 0.5400560772633188
9.7E9 0.9435515284509415 0.3239091592055401
9.75E9 0.9935550596620761 0.08905979464462338
9.8E9 0.9860642615369507 -0.15092728864761443
9.85E9 0.921514066461615 -0.3821947086300598
9.9E9 0.8036255688581971 -0.5913862177479313
9.95E9 0.6391943108212328 -0.7664123421493075
1.0E10 0.43770368423942885 -0.8971452844174289
1000000000 -0.11153730418649613 -0.9926571549340887
1050000000 -0.345511487685605 -0.9375540818700179
1100000000 -0.5595885868334864 -0.8281149879366773
1150000000 -0.7413415886732024 -0.6706524609867909
1200000000 -0.8802076931790037 -0.47427731849177274
1250000000 -0.9681089695600278 -0.25037246386571516
1300000000 -0.9999287374478625 -0.01193081163814573
1350000000 -0.9738140981351612 0.22720369796199688
1400000000 -0.891285654164915 0.4531465128225485
1450000000 -0.7571475013921859 0.6527853533675989
1500000000 -0.5792031548774571 0.8145464383713508
1550000000 -0.36779521563285167 0.929068071729735
1600000000 -0.1351973855599903 0.9897417930062153
1650000000 0.10510386890325024 0.9930899632488744
1700000000 0.3391946523499943 0.9389590786826671
1750000000 0.5535394832066322 0.8305194570610024
1800000000 0.7357609337999791 0.6740734130167867
1850000000 0.8753488514767181 0.4786849092376425
1900000000 0.9642597845810464 0.255653363229733
1950000000 0.9973739720536905 0.017862391825776033
2000000000 0.9727854126174919 -0.220959472535888
2050000000 0.89190965917245 -0.44702479798328665
2100000000 0.7594036788586653 -0.6472764943974401
2.15E9 0.5829020108539263 -0.8101366285246843
2.2E9 0.37258319137499574 -0.926173084732503
2.25E9 0.14058963664125343 -0.9886463138042855
2.3E9 -0.09966751656423974 -0.9939043760037569
2.35E9 -0.3342801556673714 -0.9416023161771128
2.4E9 -0.5496479259360787 -0.8347313701420284
2.45E9 -0.733269489774194 -0.6794542084911108
2.5E9 -0.8744736365786863 -0.48475382910067827
2.55E9 -0.9650462504830135 -0.26191511666458045
2.6E9 -0.99971475015285 -0.023868697630531302
2.65E9 -0.9764599219030132 0.21556429278258765
2.7E9 -0.8966355839183907 0.44248130296302696
2.75E9 -0.7648885173950304 0.6437124388138195
2.8E9 -0.5888836842520686 0.8075902897660111
2.85E9 -0.37885195604513416 0.9246292591073527
2.9E9 -0.14698848277003657 0.9880741954240468
2.95E9 0.09326134195395906 0.9942866925497781
3.0E9 0.32798516195078276 0.9429477940209425
3.05E9 0.5436097400384563 0.8370671820256883
3.1E9 0.7276830416541054 0.6828004320426521
3.15E9 0.8695879033200395 0.48908684232545074
3.2E9 0.9611476213278038 0.2671301149031377
3.25E9 0.9970904675216222 0.029752349395927788
3.3E9 0.9753482523809937 -0.20934185345432038
3.35E9 0.8971731558824093 -0.4363500376475778
3.4E9 0.7670667220956233 -0.6381618528004169
3.45E9 0.5925247942064988 -0.8031106679491696
3.5E9 0.38361190303220916 -0.9216450094590538
3.55E9 0.1523878568459967 -0.9868818679696816
3.6E9 -0.0877823765284461 -0.9950097804345269
3.65E9 -0.32299738533068506 -0.9455173216086005
3.7E9 -0.5396232844445282 -0.8412320065646169
3.75E9 -0.7250866063646564 -0.68816523964473
3.8E9 -0.8686094144588407 -0.4951703115302903
3.85E9 -0.9618424559624499 -0.2734318595148636
3.9E9 -0.999357612859784 -0.03581587413343024
3.95E9 -0.9789690690234827 0.20388156691847864
4.0E9 -0.9018630189157495 0.43174189177940403
4.05E9 -0.7725276830023421 0.6345391770002808
4.1E9 -0.5984879797032647 0.8005135193213576
4.15E9 -0.3898614679863981 0.9200561175855608
4.2E9 -0.15876318801604833 0.98626544054765
4.25E9 0.08140400052805444 0.9953423212804261
4.3E9 0.31673062069352653 0.9468021327798356
4.35E9 0.5336069112069325 0.8434935385875808
4.4E9 0.7195073844815898 0.6914248511440264
4.45E9 0.8637089690488274 0.4994100269501268
4.5E9 0.9579027627710719 0.27855618095623513
4.55E9 0.9966660380147531 0.04162277879521409
4.6E9 0.9777692199505932 -0.1977109103400196
4.65E9 0.9023016416765973 -0.4256290911473576
4.7E9 0.7746095467519698 -0.6289700714893388
4.75E9 0.6020496867106069 -0.79598056338255
4.8E9 0.39457159852441337 -0.91699173194576
4.85E9 0.16415089125416138 -0.9849788582403157
4.9E9 -0.07589576085291601 -0.9959722504609115
4.95E9 -0.3116761541993025 -0.9492946683381303
5.0E9 -0.5295255449086902 -0.8476097976473596
5.05E9 -0.7168009118758976 -0.6967768650339159
5.1E9 -0.8626198088349414 -0.5055177978889156
5.15E9 -0.9584994721048701 -0.2849147377529754
5.2E9 -0.9988571211303218 -0.047766425655633916
5.25E9 -0.9813403914309788 0.19215882804772183
5.3E9 -0.9069671213598552 0.42092896600808144
5.35E9 -0.780065578489503 0.6252641614776273
5.4E9 -0.6080187813910851 0.793313571859863
5.45E9 -0.4008288854308452 0.9153460967102401
5.5E9 -0.17052872005814346 0.9843140969279816
5.55E9 0.0695233145396216 0.9962573749028221
5.6E9 0.30542224963491305 0.9505249617141764
5.65E9 0.5235230845962633 0.8498035852315692
5.7E9 0.7112278388117134 0.6999532701266056
5.75E9 0.8577082348510587 0.509661593025811
5.8E9 0.9545237014902495 0.2899380678810569
5.85E9 0.9961009414525993 0.053478519270058825
5.9E9 0.9800493602485972 -0.18606417165058137
5.95E9 0.907295728200976 -0.414862045260389
6.0E9 0.7820311203244945 -0.6197034126288203
6.05E9 0.6114730668159055 -0.7887498500197476
6.1E9 0.40545559743611065 -0.9122168019246809
6.15E9 0.17586912360122664 -0.9829394755401965
6.2E9 -0.06401950543792267 -0.9967914016687328
6.25E9 -0.30032932808280394 -0.952930584239528
6.3E9 -0.5193671576267537 -0.8538573475419371
6.35E9 -0.7084230136924771 -0.7052784661110225
6.4E9 -0.8565124498687084 -0.5157834198729012
6.45E9 -0.9550213314302516 -0.2963499985252517
6.5E9 -0.9982137244312638 -0.059707212946740765
6.55E9 -0.983571401044485 0.18040725797824947
6.6E9 -0.9119436126326921 0.41005081784281433
6.65E9 -0.7874975540879975 0.6158924493104212
6.7E9 -0.6174724775642484 0.7859925674489853
6.75E9 -0.4117527550002937 0.9104992486025847
6.8E9 -0.1822863976096274 0.9822194012636782
6.85E9 0.05761519879381982 0.9970316470697473
6.9E9 0.2940538067840354 0.9541178380826904
6.95E9 0.513350935514964 0.8560014349322016
7.0E9 0.7028373007164603 0.7083925743156988
7.05E9 0.8515800685471024 0.5198507994758284
7.1E9 0.9510072052074453 0.3012864834667035
7.15E9 0.995394747928042 0.06533047736747415
7.2E9 0.9821908296372706 -0.17439183683560458
7.25E9 0.9121593606431979 -0.4040412796174912
7.3E9 0.7893359590461021 -0.6103570390475593
7.35E9 0.6207986366637919 -0.7814164603454982
7.4E9 0.416265529212596 -0.9073202729202866
7.45E9 0.18754125312068642 -0.9807647252251508
7.5E9 -0.05215809973422125 -0.9974677277869962
7.55E9 -0.28896416565342264 -0.9564235873792966
7.6E9 -0.5091571121067597 -0.8599700358391447
7.65E9 -0.6999621624109553 -0.7136616703288715
7.7E9 -0.8502952283272027 -0.5259551302777447
7.75E9 -0.9514131098145189 -0.3077226935658151
7.8E9 -0.9974286841696757 -0.07162172096327289
7.85E9 -0.9856592033143795 0.1686432937956263
7.9E9 -0.9167858319990059 0.39912216658438127
7.95E9 -0.7948142314639322 0.606435724020252
8.0E9 -0.6268384753439802 0.7785584115896628
8.05E9 -0.4226229315447255 0.9055196732112402
8.1E9 -0.19402801846751744 0.9799823306210815
8.15E9 0.045684875225005334 0.9976642377486414
8.2E9 0.28262715058242804 0.9575795342111972
8.25E9 0.5030892915699677 0.8620870669773245
8.3E9 0.6943325306515586 0.7167451574710807
8.35E9 0.8453205446260714 0.5299830929814802
8.4E9 0.9473501631831486 0.31260987455972966
8.45E9 0.9945464609921789 0.07718937879521963
8.5E9 0.9841955670273876 -0.16268212843444232
8.55E9 0.9168975798094117 -0.3931554285528452
8.6E9 0.7965316797925959 -0.6009213764618379
8.65E9 0.6300354803370039 -0.7739736021197223
8.7E9 0.42701048833587907 -0.9022985108700952
8.75E9 0.19917489319969237 -0.9784537950232883
8.8E9 -0.040306610673819424 -0.9980022415601196
8.85E9 -0.2775790487877262 -0.959775052318753
8.9E9 -0.4988970155873751 -0.8659479671730015
8.95E9 -0.6914223657172158 -0.721923853676875
9.0E9 -0.8439731348813821 -0.5360266055775583
9.05E9 -0.9476790411182888 -0.3190225386484152
9.1E9 -0.9965037593104752 -0.08349623412408032
9.15E9 -0.9876017339371668 0.1568828422175143
9.2E9 -0.9214871933402018 0.3881593855649572
9.25E9 -0.8020046074160896 0.5969089458432106
9.3E9 -0.6361022560456011 0.7710229820006819
9.35E9 -0.43342291258935206 0.9004150340697535
9.4E9 -0.2057369637399237 0.9776059626433787
9.45E9 0.033747238996851614 0.9981540980343517
9.5E9 0.27115399738959045 0.9609060699224181
9.55E9 0.4927459003541184 0.868055258835846
9.6E9 0.6857173279945216 0.725006396950863
9.65E9 0.8389303265928284 0.5400560772633188
9.7E9 0.9435515284509415 0.3239091592055401
9.75E9 0.9935550596620761 0.08905979464462338
9.8E9 0.9860642615369507 -0.15092728864761443
9.85E9 0.921514066461615 -0.3821947086300598
9.9E9 0.8036255688581971 -0.5913862177479313
9.95E9 0.6391943108212328 -0.7664123421493075
1.0E10 0.43770368423942885 -0.8971452844174289
1000000000 -0.11153730418649613 -0.9926571549340887
1050000000 -0.345511487685605 -0.9375540818700179
1100000000 -0.5595885868334864 -0.8281149879366773
1150000000 -0.7413415886732024 -0.6706524609867909
1200000000 -0.8802076931790037 -0.47427731849177274
1250000000 -0.9681089695600278 -0.25037246386571516
1300000000 -0.9999287374478625 -0.01193081163814573
1350000000 -0.9738140981351612 0.22720369796199688
1400000000 -0.891285654164915 0.4531465128225485
1450000000 -0.7571475013921859 0.6527853533675989
1500000000 -0.5792031548774571 0.8145464383713508
1550000000 -0.36779521563285167 0.929068071729735
1600000000 -0.1351973855599903 0.9897417930062153
1650000000 0.10510386890325024 0.9930899632488744
1700000000 0.3391946523499943 0.9389590786826671
1750000000 0.5535394832066322 0.8305194570610024
1800000000 0.7357609337999791 0.6740734130167867
1850000000 0.8753488514767181 0.4786849092376425
1900000000 0.9642597845810464 0.255653363229733
1950000000 0.9973739720536905 0.017862391825776033
2000000000 0.9727854126174919 -0.220959472535888
2050000000 0.89190965917245 -0.44702479798328665
2100000000 0.7594036788586653 -0.6472764943974401
2.15E9 0.5829020108539263 -0.8101366285246843
2.2E9 0.37258319137499574 -0.926173084732503
2.25E9 0.14058963664125343 -0.9886463138042855
2.3E9 -0.09966751656423974 -0.9939043760037569
2.35E9 -0.3342801556673714 -0.9416023161771128
2.4E9 -0.5496479259360787 -0.8347313701420284
2.45E9 -0.733269489774194 -0.6794542084911108
2.5E9 -0.8744736365786863 -0.48475382910067827
2.55E9 -0.9650462504830135 -0.26191511666458045
2.6E9 -0.99971475015285 -0.023868697630531302
2.65E9 -0.9764599219030132 0.21556429278258765
2.7E9 -0.8966355839183907 0.44248130296302696
2.75E9 -0.7648885173950304 0.6437124388138195
2.8E9 -0.5888836842520686 0.8075902897660111
2.85E9 -0.37885195604513416 0.9246292591073527
2.9E9 -0.14698848277003657 0.9880741954240468
2.95E9 0.09326134195395906 0.9942866925497781
3.0E9 0.32798516195078276 0.9429477940209425
3.05E9 0.5436097400384563 0.8370671820256883
3.1E9 0.7276830416541054 0.6828004320426521
3.15E9 0.8695879033200395 0.48908684232545074
3.2E9 0.9611476213278038 0.2671301149031377
3.25E9 0.9970904675216222 0.029752349395927788
3.3E9 0.9753482523809937 -0.20934185345432038
3.35E9 0.8971731558824093 -0.4363500376475778
3.4E9 0.7670667220956233 -0.6381618528004169
3.45E9 0.5925247942064988 -0.8031106679491696
3.5E9 0.38361190303220916 -0.9216450094590538
3.55E9 0.1523878568459967 -0.9868818679696816
3.6E9 -0.0877823765284461 -0.9950097804345269
3.65E9 -0.32299738533068506 -0.9455173216086005
3.7E9 -0.5396232844445282 -0.8412320065646169
3.75E9 -0.7250866063646564 -0.68816523964473
3.8E9 -0.8686094144588407 -0.4951703115302903
3.85E9 -0.9618424559624499 -0.2734318595148636
3.9E9 -0.999357612859784 -0.03581587413343024
3.95E9 -0.9789690690234827 0.20388156691847864
4.0E9 -0.9018630189157495 0.43174189177940403
4.05E9 -0.7725276830023421 0.6345391770002808
4.1E9 -0.5984879797032647 0.8005135193213576
4.15E9 -0.3898614679863981 0.9200561175855608
4.2E9 -0.15876318801604833 0.98626544054765
4.25E9 0.08140400052805444 0.9953423212804261
4.3E9 0.31673062069352653 0.9468021327798356
4.35E9 0.5336069112069325 0.8434935385875808
4.4E9 0.7195073844815898 0.6914248511440264
4.45E9 0.8637089690488274 0.4994100269501268
4.5E9 0.9579027627710719 0.27855618095623513
4.55E9 0.9966660380147531 0.04162277879521409
4.6E9 0.9777692199505932 -0.1977109103400196
4.65E9 0.9023016416765973 -0.4256290911473576
4.7E9 0.7746095467519698 -0.6289700714893388
4.75E9 0.6020496867106069 -0.79598056338255
4.8E9 0.39457159852441337 -0.91699173194576
4.85E9 0.16415089125416138 -0.9849788582403157
4.9E9 -0.07589576085291601 -0.9959722504609115
4.95E9 -0.3116761541993025 -0.9492946683381303
5.0E9 -0.5295255449086902 -0.8476097976473596
5.05E9 -0.7168009118758976 -0.6967768650339159
5.1E9 -0.8626198088349414 -0.5055177978889156
5.15E9 -0.9584994721048701 -0.2849147377529754
5.2E9 -0.9988571211303218 -0.047766425655633916
5.25E9 -0.9813403914309788 0.19215882804772183
5.3E9 -0.9069671213598552 0.42092896600808144
5.35E9 -0.780065578489503 0.6252641614776273
5.4E9 -0.6080187813910851 0.793313571859863
5.45E9 -0.4008288854308452 0.9153460967102401
5.5E9 -0.17052872005814346 0.9843140969279816
5.55E9 0.0695233145396216 0.9962573749028221
5.6E9 0.30542224963491305 0.9505249617141764
5.65E9 0.5235230845962633 0.8498035852315692
5.7E9 0.7112278388117134 0.6999532701266056
5.75E9 0.8577082348510587 0.509661593025811
5.8E9 0.9545237014902495 0.2899380678810569