% Model:              cali 3.02 0.91mm 校准-肿瘤组织.mph
% Version:            COMSOL 6.2.0.290
% Date:               Sep 30 2024, 14:43
% Table:              表格 1 - 全局计算 1
% N                      H_TUMOR (mm)             freq (Hz)                real(emw.S11) (1)        imag(emw.S11) (1)
1000000000 0.49543151747718195 0.6726859623260447
1050000000 0.6509417372438329 0.5169458481059515
1100000000 0.7596932282316957 0.3270005872323626
1150000000 0.8147030339411849 0.11639996114529172
1200000000 0.8127964446298898 -0.10005630368788113
1250000000 0.7547679714001355 -0.30735941168477693
1300000000 0.645266290673122 -0.49132501728170236
1350000000 0.4924223512605055 -0.6395519199313944
1400000000 0.3072484897978283 -0.7422492272289903
1450000000 0.10284578004672547 -0.7928777998326743
1500000000 -0.10652519072883529 -0.7885588848500101
1550000000 -0.3064403250537576 -0.7302231143600189
1600000000 -0.4833039917423616 -0.622496330505055
1650000000 -0.6252716696325318 -0.4733347485746584
1700000000 -0.7230420366619552 -0.29343520749018986
1750000000 -0.770463443001893 -0.095462076823939
1800000000 -0.7649126777846269 0.10685231837131107
1850000000 -0.7074223316272795 0.2996672232540482
1900000000 -0.6025528803764788 0.4699836237104008
1950000000 -0.45802435683250065 0.6065188995060162
2000000000 -0.28413854274956013 0.7004475394027914
2050000000 -0.09303560317909537 0.7459600334375822
2100000000 0.10216025656969024 0.7406050074989826
2.15E9 0.2882441630520489 0.685395887294856
2.2E9 0.4528194429671668 0.5846816036569323
2.25E9 0.5851129861755091 0.44579750024933973
2.3E9 0.676666054493968 0.27852559492686674
2.35E9 0.7218587330163839 0.09440370367649546
2.4E9 0.718237298415933 -0.09406832355194382
2.45E9 0.6666273338221228 -0.27427111797280934
2.5E9 0.5710300212965338 -0.43430134229564604
2.55E9 0.4383126903863437 -0.5637468894380778
2.6E9 0.27771676937284745 -0.6543532879681723
2.65E9 0.10021704752749638 -0.7005399771636818
2.7E9 -0.082224647455927 -0.6997346505999158
2.75E9 -0.2574615613853352 -0.6525057117873762
2.8E9 -0.41396673074284895 -0.5624861977583563
2.85E9 -0.5415872769748397 -0.43609624895335924
2.9E9 -0.6321988474919206 -0.28208444625683066
2.95E9 -0.6802176270873475 -0.11092033386226754
3.0E9 -0.6829371772646721 0.0659196125413647
3.05E9 -0.6406696223920122 0.2367232901276437
3.1E9 -0.5566844650292454 0.39031885852303816
3.15E9 -0.4369524046480191 0.5168030446842582
3.2E9 -0.28971478516404353 0.6081739867249141
3.25E9 -0.12491071901687008 0.6588283281244085
3.3E9 0.04649724303175056 0.6658924641050659
3.35E9 0.2132523572373467 0.6293697803860279
3.4E9 0.36453906412178033 0.5520984371450955
3.45E9 0.490676845339052 0.4395267553014323
3.5E9 0.583729075291524 0.29932470538682254
3.55E9 0.6379900690100005 0.14085973449827296
3.6E9 0.6503221371886352 -0.02542724761301124
3.65E9 0.6203243765541636 -0.1887047355594325
3.7E9 0.5503255436655184 -0.33844873793564667
3.75E9 0.44520410862732246 -0.4651124438058849
3.8E9 0.31204893246737786 -0.5607261407323941
3.85E9 0.15968347070562122 -0.6193907504881612
3.9E9 -0.00191548090981275 -0.6376350806797466
3.95E9 -0.1622671470332211 -0.6146153756521957
4.0E9 -0.31106272665824464 -0.5521455821388951
4.05E9 -0.43882476481604593 -0.4545574057008785
4.1E9 -0.5375078116826982 -0.3284000974935767
4.15E9 -0.6010020358657825 -0.18200027275677413
4.2E9 -0.6255078508921141 -0.024911190134834945
4.25E9 -0.6097582256354115 0.132711878050596
4.3E9 -0.5550755964205534 0.2807688551149967
4.35E9 -0.4652614310215743 0.4098615066232938
4.4E9 -0.3463276682713282 0.5118875966560296
4.45E9 -0.20608962199007116 0.5805447441474555
4.5E9 -0.053648730427200954 0.6117128162594031
4.55E9 0.10119984834376794 0.6036922933608542
4.6E9 0.24859573484169584 0.5572858806491555
4.65E9 0.3792375115876883 0.4757209677113359
4.7E9 0.48496347585917976 0.3644206222353286
4.75E9 0.5592535276307092 0.23064001187844962
4.8E9 0.5976224445998256 0.08299297336798117
4.85E9 0.5978820272211632 -0.06910047182249211
4.9E9 0.560257885211433 -0.21601074630884554
4.95E9 0.48735550057121024 -0.34850255207896524
5.0E9 0.3839791800385326 -0.4583090427183589
5.05E9 0.25681616682263736 -0.5386415736065587
5.1E9 0.1140061037562024 -0.5846043039602664
5.15E9 -0.03537716790095793 -0.5934886951314696
5.2E9 -0.18189920165083448 -0.5649301979736743
5.25E9 -0.3163582114454367 -0.5009178017061718
5.3E9 -0.430360956997651 -0.4056561873803429
5.35E9 -0.5168451489553674 -0.28528946328154364
5.4E9 -0.5705155490672766 -0.14750426622842647
5.45E9 -0.5881664048722922 -0.0010377787873013956
5.5E9 -0.5688701995356289 0.14487764047959206
5.55E9 -0.5140214313124467 0.281097469762342
5.6E9 -0.42723364371428296 0.3991383154677671
5.65E9 -0.3140975073458429 0.49170505282301247
5.7E9 -0.1818166990876664 0.5531387884795509
5.75E9 -0.03874598924720605 0.5797581941060651
5.8E9 0.1061381849648143 0.5700740455224645
5.85E9 0.24380065718961585 0.5248652178112861
5.9E9 0.36570855449550327 0.4471133042979545
5.95E9 0.4643558274675746 0.34180183129848307
6.0E9 0.5337196493972955 0.2155941813739497
6.05E9 0.5696217749179494 0.07641136538321032
6.1E9 0.569974094465459 -0.0670636380840802
6.15E9 0.5348947770955482 -0.2059243519940831
6.2E9 0.4666891475723244 -0.33158934725629097
6.25E9 0.3696973914139028 -0.43632786704558085
6.3E9 0.2500189365049867 -0.5137310777558892
6.35E9 0.11513054943095807 -0.55910077393189
6.4E9 -0.026578550272874504 -0.5697322288799714
6.45E9 -0.16632625596314787 -0.5450741194763781
6.5E9 -0.2954800971562759 -0.4867557721671649
6.55E9 -0.40608941386343683 -0.39848000282745555
6.6E9 -0.49137430498508644 -0.2857881022534704
6.65E9 -0.546140976481277 -0.15571153640235322
6.7E9 -0.5670976087196896 -0.01633214346967649
6.75E9 -0.553051107124367 0.12372150512576104
6.8E9 -0.5049727025683576 0.25580980673858306
6.85E9 -0.42592880625395885 0.3718161189801567
6.9E9 -0.320882193048488 0.4646455342250949
6.95E9 -0.19637685739394808 0.5286574403240889
7.0E9 -0.06012716523708193 0.5600054132064871
7.05E9 0.07946228188091205 0.5568641926244898
7.1E9 0.21381570477122802 0.5195308746643389
7.15E9 0.33471184790278524 0.45039546558572047
7.2E9 0.43478419915056093 0.35378402652078006
7.25E9 0.507965706946828 0.23568528527267138
7.3E9 0.5498517963422787 0.10337836460917874
7.35E9 0.557960716404377 -0.03501516345882693
7.4E9 0.5318765371795294 -0.1710275814164041
7.45E9 0.47326708528858374 -0.29635986803052367
7.5E9 0.38577639510700656 -0.4033844276960137
7.55E9 0.2747984988782523 -0.4856059051117327
7.6E9 0.1471462364444843 -0.5380527582901505
7.65E9 0.010634896408634732 -0.5575762568853461
7.7E9 -0.1263944188165514 -0.543038916012088
7.75E9 -0.2555830834467409 -0.49538082863076494
7.8E9 -0.36906415951491883 -0.41755960627146305
7.85E9 -0.4599414896665855 -0.31436728627045485
7.9E9 -0.5227092377519851 -0.19213515766357006
7.95E9 -0.5535859361059062 -0.05834450280588547
8.0E9 -0.5507423150580916 0.07883274687628966
8.05E9 -0.5144088235506487 0.21103493246524133
8.1E9 -0.4468563636269492 0.3302219911832403
8.15E9 -0.3522518251302872 0.42916539841655266
8.2E9 -0.2363979431622262 0.5018864449541091
8.25E9 -0.10637424305086612 0.5440160538157831
8.3E9 0.029898115108873392 0.5530545355323444
8.35E9 0.16414031709387605 0.5285161762394454
8.4E9 0.288218793984464 0.47195086372344974
8.45E9 0.3946364314372243 0.38684256782093196
8.5E9 0.47698265928100503 0.278391907361785
8.55E9 0.5303158869414285 0.1531968165833516
8.6E9 0.551456105782021 0.01885111071578921
8.65E9 0.5391709850113179 -0.11651472577153171
8.7E9 0.49424510540269595 -0.24472312509208796
8.75E9 0.41942876004797863 -0.3580404607777699
8.8E9 0.31926966336439816 -0.44964062777522423
8.85E9 0.19983761674012987 -0.5140139116606168
8.9E9 0.06835835823982653 -0.5472969893440193
8.95E9 -0.06722183903618521 -0.5475043754521874
9.0E9 -0.19871505840974618 -0.5146472722432941
9.05E9 -0.3181855724420511 -0.45073233498613097
9.1E9 -0.4184289118628323 -0.3596399944777114
9.15E9 -0.49340708287705015 -0.2468892812354144
9.2E9 -0.5386132777218945 -0.11930311928868252
9.25E9 -0.5513435866864594 0.015405670941078434
9.3E9 -0.5308588934902316 0.14910235311003708
9.35E9 -0.4784269686663259 0.273723451927676
9.4E9 -0.3972423082234615 0.3817647251313865
9.45E9 -0.29222896889534633 0.46673391164174477
9.5E9 -0.1697389790675839 0.5235405892513575
9.55E9 -0.037165342399723224 0.5487996105608309
9.6E9 0.09750623144836049 0.5410301809619551
9.65E9 0.22617924889887533 0.5007392736138373
9.7E9 0.3411327050030966 0.43038526561296975
9.75E9 0.43548255596075125 0.3342249418762677
9.8E9 0.503591130965272 0.218053897734454
9.85E9 0.541400653479427 0.08885649125184453
9.9E9 0.5466717460729795 -0.0456134538275688
9.95E9 0.5191134617044879 -0.17729623462479005
1.0E10 0.4603976919245371 -0.2983068585848937
1000000000 0.520105467485329 0.6742332380148475
1050000000 0.6755594952479204 0.5111363772874981
1100000000 0.7820714947817458 0.3140572639162441
1150000000 0.832799839036699 0.09718446138449582
1200000000 0.8248934970435624 -0.12411089081498353
1250000000 0.7596249529074708 -0.33436609093461495
1300000000 0.642234191358012 -0.5190997654187607
1350000000 0.4815067694051871 -0.6657964488459215
1400000000 0.2891177137487704 -0.7647444078980661
1450000000 0.07878281273598038 -0.8096714633637888
1500000000 -0.1347226107902902 -0.7981320023676652
1550000000 -0.3366030867056076 -0.7316203965482948
1600000000 -0.5130662617987379 -0.6154105267267821
1650000000 -0.6522623410443885 -0.4581377746730668
1700000000 -0.745077117378653 -0.2711535708852368
1750000000 -0.7857234163504089 -0.06769873670028606
1800000000 -0.7720901825619801 0.1380429454276075
1850000000 -0.7058281878124785 0.3319404370550802
1900000000 -0.5921722448597139 0.5008882093256809
1950000000 -0.4395191625340591 0.6336883579420978
2000000000 -0.2587968148643977 0.7217834626186804
2050000000 -0.0626724318298308 0.7597932890071853
2100000000 0.13534155811855406 0.7458224584545281
2.15E9 0.32181920232460437 0.6815234528285163
2.2E9 0.4843248487683507 0.5719182353984383
2.25E9 0.6122295261642887 0.42499857424659054
2.3E9 0.6973892631113806 0.25113793096450315
2.35E9 0.7346448107808726 0.0623578038185066
2.4E9 0.722114099120941 -0.12850029487858244
2.45E9 0.6612629975612191 -0.3086408409520287
2.5E9 0.5567549792111294 -0.466161175192023
2.55E9 0.416094079351498 -0.5908253513422099
2.6E9 0.24908756528263043 -0.6747168058291512
2.65E9 0.06716531850871431 -0.7127295791865791
2.7E9 -0.11739822114973553 -0.702868106175484
2.75E9 -0.29230755836091266 -0.6463381045301493
2.8E9 -0.44606044087352753 -0.5474249097022242
2.85E9 -0.5686993050395612 -0.4131696148454985
2.9E9 -0.6524507135384072 -0.25286667184873524
2.95E9 -0.692211373524299 -0.0774184213016588
3.0E9 -0.6858499780711305 0.10140846728458928
3.05E9 -0.634307053443596 0.27177329611088424
3.1E9 -0.5414892163516873 0.42254446108698734
3.15E9 -0.4139685226223798 0.5440229209145454
3.2E9 -0.2605107440368899 0.6285587566468291
3.25E9 -0.09146748185170833 0.6710219884428961
3.3E9 0.08192471181341238 0.6690996883966186
3.35E9 0.24829007114275223 0.6234038470040041
3.4E9 0.396854619480299 0.5373874146268526
3.45E9 0.5181347634319755 0.41707846613607186
3.5E9 0.6045306974674105 0.2706536999115672
3.55E9 0.6507891458506937 0.10788187585640191
3.6E9 0.6543090700896731 -0.060525076401179746
3.65E9 0.6152742404735584 -0.2236109174054462
3.7E9 0.5366074033579054 -0.3708795196063571
3.75E9 0.42375160244302795 -0.492960961281822
3.8E9 0.2842945095374391 -0.5821983655907513
3.85E9 0.12746090743750554 -0.6331197820854596
3.9E9 -0.03649370699915 -0.6427666446269346
3.95E9 -0.19694949451754182 -0.6108592584832921
4.0E9 -0.3436060515746096 -0.5397899383055091
4.05E9 -0.46713994335992925 -0.4344452911944827
4.1E9 -0.5597940149828587 -0.30187006409910533
4.15E9 -0.6158609404115283 -0.15079523050359644
4.2E9 -0.6320304609468205 0.008938159213977826
4.25E9 -0.6075788859432572 0.16702107646069966
4.3E9 -0.5443900467602288 0.3133421430600424
4.35E9 -0.44680822503363676 0.43863320880530554
4.4E9 -0.32133475554574 0.5350531887778414
4.45E9 -0.17619018507023815 0.5966732330021431
4.5E9 -0.020772310061528822 0.619833502714273
4.55E9 0.13495344416164096 0.603350849121183
4.6E9 0.2810913393187075 0.5485667977578559
4.65E9 0.4084396105912875 0.4592356698667323
4.7E9 0.5090628605637119 0.3412627033161818
4.75E9 0.5767778907534199 0.20231105528601484
4.8E9 0.6075244154491227 0.05130410025215432
4.85E9 0.5995996647527486 -0.1021448519765334
4.9E9 0.553744401279518 -0.24833960003842126
4.95E9 0.47307686671825505 -0.37810744930697215
5.0E9 0.36288018396973265 -0.4833680712053526
5.05E9 0.2302573369591217 -0.5576304761969854
5.1E9 0.08367562319512026 -0.5963881984457973
5.15E9 -0.06757096893930026 -0.5973889353771311
5.2E9 -0.21394803491936187 -0.5607624536866819
5.25E9 -0.3462792008456208 -0.48899919839098216
5.3E9 -0.45631937820358487 -0.38678126238721844
5.35E9 -0.5372669013041701 -0.2606766444997461
5.4E9 -0.5841823883649966 -0.11871644007475379
5.45E9 -0.5942880922690631 0.030117846253794635
5.5E9 -0.5671292398508744 0.1764638702308273
5.55E9 -0.5045878798323152 0.311168297533276
5.6E9 -0.41074942248258167 0.4258592143781571
5.65E9 -0.29163164485608933 0.5134648414180242
5.7E9 -0.15479474630242704 0.5686461995412079
5.75E9 -0.008858440658887546 0.5881173925596943
5.8E9 0.13704242561419397 0.5708348006910995
5.85E9 0.2738289469468995 0.5180451201707478
5.9E9 0.3930401761804614 0.4331912017448898
5.95E9 0.4873516382413092 0.3216834238824033
6.0E9 0.5510192438911664 0.19055234995162196
6.05E9 0.5802225901254955 0.048005232410988884
6.1E9 0.573288061824835 -0.09708577243324187
6.15E9 0.5307795101523148 -0.2357322309574872
6.2E9 0.45545216340082106 -0.3593816897720324
6.25E9 0.3520734246029729 -0.46044044231159403
6.3E9 0.2271219423238673 -0.5327355844386226
6.35E9 0.0883834357805382 -0.5718887591588911
6.4E9 -0.05553214497027739 -0.5755791720707947
6.45E9 -0.1957227783253231 -0.5436799753093282
6.5E9 -0.32354338144745426 -0.4782596616692966
6.55E9 -0.4311379710875578 -0.3834482907358983
6.6E9 -0.5119220932294064 -0.26517671487641536
6.65E9 -0.5609855472724723 -0.1308049570667462
6.7E9 -0.5753903159537479 0.011337033803951527
6.75E9 -0.5543452049264962 0.15246738141097
6.8E9 -0.49924657257882665 0.2838963900240608
6.85E9 -0.41358314487260217 0.39756251272927434
6.9E9 -0.3027116407477892 0.4865266259170207
6.95E9 -0.17351814632798437 0.5453939919496597
7.0E9 -0.033987286377801955 0.5706382235508426
7.05E9 0.10729322859511381 0.5608080914403437
7.1E9 0.24166148201104942 0.5166056333506418
7.15E9 0.36091091563235606 0.44083216844514816
7.2E9 0.45778836709351867 0.3382069407450427
7.25E9 0.5264308315309512 0.21507070389932303
7.3E9 0.562715341331498 0.07899319582786643
7.35E9 0.5645018575665617 -0.061691187342447044
7.4E9 0.5317555616614807 -0.1983913467391541
7.45E9 0.4665420535715201 -0.3227806650099969
7.5E9 0.3728963350187444 -0.42730048034102536
7.55E9 0.2565737254396062 -0.5056160583259104
7.6E9 0.12469767721447252 -0.5529980413731409
7.65E9 -0.01467451150722603 -0.5666066336818668
7.7E9 -0.1530421673724124 -0.5456613842973252
7.75E9 -0.2819784670601318 -0.49148610892296357
7.8E9 -0.3936431458551468 -0.407425912233696
7.85E9 -0.4812594279379638 -0.29864102917619045
7.9E9 -0.5395258628385083 -0.17178982660510175
7.95E9 -0.5649375909299355 -0.03462029197498394
8.0E9 -0.5559971030778613 0.10450481306506353
8.05E9 -0.5133014718342281 0.23711968072863449
8.1E9 -0.43950085369674485 0.3551722503865334
8.15E9 -0.33913124454458715 0.4515139923603136
8.2E9 -0.21833242625848223 0.5203324761548505
8.25E9 -0.08446920475544797 0.5575003610023828
8.3E9 0.05432008321701414 0.5608199575701364
8.35E9 0.1896195968400262 0.530149259106168
8.4E9 0.31324601529550766 0.46740282727960775
8.45E9 0.4177416376239723 0.37642862119204196
8.5E9 0.4968211344309101 0.26276928295941976
8.55E9 0.5457457212845537 0.1333231082703333
8.6E9 0.56160314347038 -0.004074411643723124
8.65E9 0.5434775871008348 -0.1411232444524516
8.7E9 0.4925001192599261 -0.26955756993926205
8.75E9 0.4117771629477366 -0.38164124069000926
8.8E9 0.30620149025287624 -0.4706308644781485
8.85E9 0.1821569372729954 -0.5311792990966094
8.9E9 0.047134182988939524 -0.5596557169665151
8.95E9 -0.09071982289820486 -0.5543631159661725
9.0E9 -0.2230921496197773 -0.5156400227453282
9.05E9 -0.34200467238118315 -0.4458398814529666
9.1E9 -0.440295226603864 -0.34918889576126527
9.15E9 -0.512049899296816 -0.2315304791897683
9.2E9 -0.5529599631337144 -0.09997150408042456
9.25E9 -0.5605814255685057 0.037548256079175925
9.3E9 -0.5344811199808303 0.17273717486534845
9.35E9 -0.47626033413677266 0.29745373509979856
9.4E9 -0.3894546736497539 0.40419848983122286
9.45E9 -0.27931665151420354 0.48656580165273805
9.5E9 -0.15249482445187504 0.5396278149626625
9.55E9 -0.016629650740968848 0.5602275589681638
9.6E9 0.12010879852590275 0.5471639436036531
9.65E9 0.2495128771452375 0.5012582540458242
9.7E9 0.3638293302513397 0.4252990825594634
9.75E9 0.4562217990577653 0.3238699696805203
9.8E9 0.5211766396181637 0.20307091155318002
9.85E9 0.5548285202677562 0.07015094728593989
9.9E9 0.5551871943621144 -0.06692602596736935
9.95E9 0.5222527034904626 -0.19995646135256706
1.0E10 0.4580127213101367 -0.32098550745512955
1000000000 0.5357505672308213 0.6757496302594526
1050000000 0.6913183133133615 0.5079342932935758
1100000000 0.7965266097319678 0.30624112133516124
1150000000 0.8446165521151645 0.08527835116578057
1200000000 0.8329408811615778 -0.13920571432451342
1250000000 0.763078450900029 -0.35144720967703114
1300000000 0.6406511983545446 -0.5367658325274128
1350000000 0.47486918941393785 -0.6825666916930608
1400000000 0.2778380266791693 -0.779185259814442
1450000000 0.06367314100944821 -0.8205194328843061
1500000000 -0.15251559732429315 -0.8044021539526212
1550000000 -0.3556915764464639 -0.7326913048663267
1600000000 -0.5319349538442888 -0.6110787706939123
1650000000 -0.6693927572103102 -0.44863759008657156
1700000000 -0.7590721329541514 -0.2571401642124198
1750000000 -0.7954215664433492 -0.05019685023037466
1800000000 -0.7766602453667373 0.15772063734563604
1850000000 -0.7048363779938898 0.3522979577905082
1900000000 -0.5856168852718012 0.5203649568255794
1950000000 -0.4278305990059382 0.6507819498427696
2000000000 -0.2428032109204712 0.7351668648463858
2050000000 -0.0435347505166261 0.7684170527470686
2100000000 0.15621968206272038 0.7489942787720474
2.15E9 0.3428991105799124 0.6789593261217359
2.2E9 0.5040493453411429 0.5637619899650138
2.25E9 0.6291392522459088 0.41180908611947276
2.3E9 0.7102303796891655 0.2338456839884585
2.35E9 0.7424602764074326 0.04219457740313878
2.4E9 0.7243121968351147 -0.15009298749309685
2.45E9 0.6576585717702792 -0.330117555707063
2.5E9 0.5475809024191163 -0.4859847633428614
2.55E9 0.4019825848854808 -0.6075775443508457
2.6E9 0.23102314497739782 -0.6871993528721538
2.65E9 0.04641282070242561 -0.7200488692927962
2.7E9 -0.13938495307505896 -0.7044974156490459
2.75E9 -0.31398982601276954 -0.6421532354822861
2.8E9 -0.4659240669663298 -0.5377109153859321
2.85E9 -0.5853613878420372 -0.39859839664955243
2.9E9 -0.6647561539831154 -0.23444732984788905
2.95E9 -0.6993123747522411 -0.05642419697568235
3.0E9 -0.6872630283558966 0.123531148801453
3.05E9 -0.6299436270294129 0.29350693742911116
3.1E9 -0.5316584179157049 0.44240630980454565
3.15E9 -0.3993519829089023 0.5606669333788389
3.2E9 -0.2421120692882096 0.640866613429822
3.25E9 -0.07054031298329537 0.6781770427196935
3.3E9 0.10396458657801624 0.6706391145429829
3.35E9 0.26996217105906695 0.6192459242703958
3.4E9 0.4167139737567597 0.5278326853082542
3.45E9 0.5348680909564711 0.4027853065097915
3.5E9 0.6170422883809945 0.2525905115952482
3.55E9 0.6582710408063243 0.08725954889927186
3.6E9 0.6562912983822837 -0.0823356278509739
3.65E9 0.6116522511228724 -0.24517053460453675
3.7E9 0.5276453173459651 -0.390775831843008
3.75E9 0.41006144629340985 -0.5099005275437637
3.8E9 0.2667930814204249 -0.595090059033619
3.85E9 0.10730730227405427 -0.6411441691131835
3.9E9 -0.057975698871356056 -0.6454270370395299
3.95E9 -0.21835896760263074 -0.6080113070758116
4.0E9 -0.36355678019255633 -0.5316480274043466
4.05E9 -0.4843503751770765 -0.42156550634956674
4.1E9 -0.5731695885691434 -0.28511104439841184
4.15E9 -0.624563390017059 -0.13125967758123142
4.2E9 -0.6355296772766339 0.029977268137801473
4.25E9 -0.6056841149538217 0.18820453184305908
4.3E9 -0.5372586405844558 0.3333131311416158
4.35E9 -0.434931699957546 0.45612462938688836
4.4E9 -0.30550344187787587 0.5489679637334396
4.45E9 -0.15743915606877154 0.6061524973207657
4.5E9 -3.124506965967555E-4 0.6243084963660416
4.55E9 0.15581449899559666 0.602575506347591
4.6E9 0.3010331488080764 0.5426293618897392
4.65E9 0.4262123509650213 0.4485490446683851
4.7E9 0.5235650175949156 0.32653459104896254
4.75E9 0.5871235175342749 0.1844961462191896
4.8E9 0.6130960149899298 0.03154160522468942
4.85E9 0.6000837188454092 -0.12260423937190688
4.9E9 0.5491476641207793 -0.26821268946644167
4.95E9 0.46372271224361017 -0.39615860285501364
5.0E9 0.34938548057326885 -0.4984854431163016
5.05E9 0.2134914655641895 -0.5688938519536183
5.1E9 0.0647042996641316 -0.6031243775443982
5.15E9 -0.08755351165446257 -0.5992113678944143
5.2E9 -0.2336942563819754 -0.557592801850384
5.25E9 -0.3645661596199699 -0.48106960331456633
5.3E9 -0.4720244765745987 -0.37461729242225594
5.35E9 -0.5494367495851032 -0.24506211313783785
5.4E9 -0.5920905154182581 -0.10064242835251916
5.45E9 -0.5974779579609142 0.04951642637850913
5.5E9 -0.5654399724750973 0.1959800533422441
5.55E9 -0.49816130004058085 0.3295985624638569
5.6E9 -0.40001814171754674 0.44207789591586616
5.65E9 -0.27728924964472557 0.526492791791976
5.7E9 -0.13775021041569763 0.5777094881928155
5.75E9 0.009822133904066811 0.5926925538153324
5.8E9 0.15620291160984687 0.5706780663407497
5.85E9 0.292294856540066 0.5132041333280588
5.9E9 0.40969043575389397 0.4239988216447171
5.95E9 0.5011861312759168 0.3087343240683629
6.0E9 0.5612181427867103 0.17466411969482562
6.05E9 0.58619407667739 0.030166561051249954
6.1E9 0.5747017858147835 -0.11577655461185686
6.15E9 0.5275840081373799 -0.2541344892902241
6.2E9 0.4478754071519587 -0.3763816569387114
6.25E9 0.3406066437148413 -0.47501812882520433
6.3E9 0.2124878224769752 -0.5440254981317257
6.35E9 0.07149068800291368 -0.5792308831775025
6.4E9 -0.07364506233662348 -0.5785572271812275
6.45E9 -0.2139513674732033 -0.5421447411789811
6.5E9 -0.340784379983428 -0.47233601850439744
6.55E9 -0.44635610962483147 -0.3735256214253771
6.6E9 -0.5242122764093654 -0.2518833225248418
6.65E9 -0.5696266784689907 -0.11496813967320957
6.7E9 -0.579887509844771 0.028742717742114916
6.75E9 -0.5544578707182616 0.17038038949211698
6.8E9 -0.49500075554139267 0.3012332282222011
6.85E9 -0.4052675214696791 0.413283469393265
6.9E9 -0.29085760023620627 0.49969815665997386
6.95E9 -0.15886538441972517 0.5552439742631029
7.0E9 -0.017437215100232172 0.5766008104151417
7.05E9 0.12473324359719024 0.5625556004576133
7.1E9 0.25893955027157906 0.5140657553118902
7.15E9 0.3769939485987397 0.43418970382757593
7.2E9 0.47172350947082065 0.3278902116380493
7.25E9 0.537401402341703 0.20172368483788536
7.3E9 0.5700880865243242 0.06343521150433763
7.35E9 0.5678628777615261 -0.07851567449185874
7.4E9 0.5309329676941005 -0.21546981792693332
7.45E9 0.46161417968420726 -0.33909311115209917
7.5E9 0.36418516552233826 -0.4418799105532227
7.55E9 0.24462402653897186 -0.5176054398310065
7.6E9 0.11024313274352444 -0.5617003780491975
7.65E9 -0.030756122213640325 -0.5715252876121746
7.7E9 -0.1697820778689607 -0.5465283052896936
7.75E9 -0.29837515664863157 -0.48827633708483315
7.8E9 -0.40872222136525044 -0.40035752473918707
7.85E9 -0.4941315677413304 -0.2881605710761315
7.9E9 -0.5494393432816626 -0.15854414526243635
7.95E9 -0.5713222414731091 -0.019416528562872876
8.0E9 -0.5584970666103027 0.12074859123852462
8.05E9 -0.5117948489033072 0.25343014937879776
8.1E9 -0.43410513667150563 0.3705793660550894
8.15E9 -0.33019434179915463 0.4651088168688343
8.2E9 -0.20640997343148382 0.5313207913760659
8.25E9 -0.07028969686099949 0.5652488877950886
8.3E9 0.06990008486554462 0.5648924995646046
8.35E9 0.20566736971369226 0.530330753739109
8.4E9 0.3288085107169103 0.46371005240510477
8.45E9 0.43190189873039736 0.3691071216772603
8.5E9 0.5087519870482641 0.252276895471174
8.55E9 0.5547576528674577 0.12030122708694882
8.6E9 0.5671836751337109 -0.018840008508491907
8.65E9 0.54531996919817 -0.15674963150369683
8.7E9 0.4905198097405705 -0.2851171778339937
8.75E9 0.40611524644696506 -0.3962165695091564
8.8E9 0.2972149308185708 -0.4833682496214664
8.85E9 0.17039629488542812 -0.5413386402125321
8.9E9 0.03331012924842316 -0.5666533124261982
8.95E9 -0.10577921616567423 -0.5578051343234994
9.0E9 -0.2384908382412453 -0.5153446734937098
9.05E9 -0.3568318713013242 -0.4418469970673279
9.1E9 -0.4536792931957031 -0.34175637341793713
9.15E9 -0.5232096630089418 -0.22111781294782357
9.2E9 -0.5612504383184905 -0.08721141899865241
9.25E9 -0.565531180480827 0.05188832886971298
9.3E9 -0.5358190876447976 0.18780141954758575
9.35E9 -0.4739305080520515 0.3123492320530561
9.4E9 -0.3836178885545725 0.41804832856457363
9.45E9 -0.2703394533098455 0.49856081212299197
9.5E9 -0.14092622704198288 0.5490738254412176
9.55E9 -0.003167306112901791 0.5665854056420684
9.6E9 0.13466087478969122 0.5500799416512775
9.65E9 0.2642924159978861 0.5005834531559493
9.7E9 0.3779668513983021 0.4210963262720393
9.75E9 0.46889156828094747 0.3164085100461418
9.8E9 0.531644588486614 0.19280905320512065
9.85E9 0.5624944036555167 0.057707868100827356
9.9E9 0.5596186320576957 -0.08080753991532637
9.95E9 0.5232092399938134 -0.2144541465085805
1.0E10 0.4554586144500988 -0.33524604371764166
1000000000 0.5458991194089741 0.67733513617629
1050000000 0.7017003888854596 0.5064273608161075
1100000000 0.8062038478404401 0.30166880925130707
1150000000 0.8526948460360416 0.07794824871721065
1200000000 0.8386520028096496 -0.1487313352493169
1250000000 0.7658498096482358 -0.36239996299981164
1300000000 0.6401579461874228 -0.5482376951417901
1350000000 0.4710645738613048 -0.693588479649513
1400000000 0.2709595335567762 -0.7888103730442961
1450000000 0.05422396130505121 -0.8279055562585156
1500000000 -0.16380793706122587 -0.8088837723589459
1550000000 -0.3679355591676088 -0.7338369253354705
1600000000 -0.5441490840999598 -0.6087282176019179
1650000000 -0.6805869214762262 -0.4429164177755889
1700000000 -0.7683294125990664 -0.24845013908798178
1750000000 -0.8019735981647325 -0.03918349891987126
1800000000 -0.77994983772357 0.1702204349277219
1850000000 -0.7045623018544167 0.3653236410922616
1900000000 -0.5817574514957145 0.5329093152627888
1950000000 -0.4206445620000409 0.66187103796406
2000000000 -0.23280840347399004 0.7439363528379048
2050000000 -0.03146657906996513 0.7741790177162078
2100000000 0.16946617513620554 0.7512893295768742
2.15E9 0.3563386558291285 0.6775903157785832
2.2E9 0.5166816602686085 0.5588072298190012
2.25E9 0.6400242542058913 0.40361463382497675
2.3E9 0.718557846207532 0.22299778103434234
2.35E9 0.7476089556885438 0.029474678211801743
2.4E9 0.7258942517817858 -0.16376695203444014
2.45E9 0.6555464238202497 -0.3437591337270401
2.5E9 0.5419148883513882 -0.49861109608171267
2.55E9 0.39315920876323357 -0.6182804364628975
2.6E9 0.21966503135283003 -0.695210272444964
2.65E9 0.03332271911894935 -0.7247933287272892
2.7E9 -0.1532826629978944 -0.7056349659694877
2.75E9 -0.32771581659517396 -0.6396003613378975
2.8E9 -0.47851407179668126 -0.5316453696053849
2.85E9 -0.5959344885128784 -0.3894448612844836
2.9E9 -0.6725764684751963 -0.22284563610895855
2.95E9 -0.7038397975071985 -0.04318258803687389
3.0E9 -0.6881895205612412 0.13749416220116495
3.05E9 -0.6272126686166343 0.3072277901152003
3.1E9 -0.5254665155333508 0.4549438866171489
3.15E9 -0.3901324635508403 0.5711675294617752
3.2E9 -0.23050266273531417 0.6486218249094655
3.25E9 -0.057337140850728656 0.6826706962676727
3.3E9 0.11786311836036045 0.6715802371658306
3.35E9 0.28361749076831266 0.6165858247654689
3.4E9 0.4292111162143229 0.52176537355858
3.45E9 0.5453768078863783 0.3937316244506115
3.5E9 0.624871505552634 0.24116741147071888
3.55E9 0.6629132330553201 0.07423687023843492
3.6E9 0.6574541015002464 -0.09608780363096069
3.65E9 0.6092755084447795 -0.2587403615112189
3.7E9 0.5219027138333948 -0.40327013742047546
3.75E9 0.40134686090566946 -0.5205032948711826
3.8E9 0.25569273911129964 -0.603115219619948
3.85E9 0.09455968238421182 -0.6460793745930673
3.9E9 -0.071529486457157 -0.6469656752387445
3.95E9 -0.23183103693730508 -0.6060707932451062
4.0E9 -0.3760708662521559 -0.526373294200122
4.05E9 -0.4950989332142124 -0.4133175848710077
4.1E9 -0.5814658562542737 -0.2744416117971318
4.15E9 -0.629885026626791 -0.1188733767660039
4.2E9 -0.6375511822841553 0.04327012269460096
4.25E9 -0.6042960112389144 0.20154162340619322
4.3E9 -0.5325723272706715 0.3458365540810476
4.35E9 -0.4272698657040082 0.4670362853587241
4.4E9 -0.2953769044388627 0.5575803174862941
4.45E9 -0.14551188384377411 0.6119314578046483
4.5E9 0.012642737154147278 0.6269057899216602
4.55E9 0.16896651312592434 0.601848667708443
4.6E9 0.31354613061492564 0.5386483223022122
4.65E9 0.4372986462037098 0.4415891796753677
4.7E9 0.5325343095953328 0.3170569430989586
4.75E9 0.5934251389453536 0.17311630811236914
4.8E9 0.6163519525783571 0.018989399873979254
4.85E9 0.6001104463827378 -0.1355316471241255
4.9E9 0.545965643715772 -0.28070127932383326
4.95E9 0.45755315528439433 -0.4074284551371025
5.0E9 0.34063471793154004 -0.5078390531199181
5.05E9 0.20272400650979777 -0.5757588810591402
5.1E9 0.05260632463947204 -0.607088272136092
5.15E9 -0.10021791208375248 -0.6000457769995724
5.2E9 -0.24613134823367455 -0.5552663485901947
5.25E9 -0.3760023143534998 -0.4757482826750159
5.3E9 -0.4817542865077254 -0.3666525388116297
5.35E9 -0.5568664984583325 -0.2349673586874338
5.4E9 -0.5967742931741713 -0.08905970515715089
5.45E9 -0.5991441905465623 0.061857652062481894
5.5E9 -0.5640067700181748 0.2083091370492981
5.55E9 -0.49373976575991335 0.34115204226487955