% Model:              cali 3.02 0.91mm 校准-校准液.mph
% Version:            COMSOL 6.2.0.290
% Date:               Oct 2 2024, 21:19
% Table:              表格 1 - 全局计算 1
% H_TUMOR (mm)           freq (Hz)                real(emw.S11) (1)        imag(emw.S11) (1)
1000000000 0.7858658002895655 0.5684859056499655
1050000000 0.9103839252042576 0.3293403032213626
1100000000 0.9625742181348216 0.06598794956798952
1150000000 0.9415434510425076 -0.19869322922946936
1200000000 0.8494781980682871 -0.4471316437647035
1250000000 0.6936240056267625 -0.66098347027145
1300000000 0.4862678594226278 -0.8222850775268512
1350000000 0.24398974645810725 -0.9214226912266036
1400000000 -0.014583226734649202 -0.9503048696203753
1450000000 -0.269906582153443 -0.9092538175587266
1500000000 -0.5042979807836274 -0.800949615271269
1550000000 -0.700049599280593 -0.6334182495312559
1600000000 -0.8409622438735345 -0.4208165535246665
1650000000 -0.9212342072509433 -0.18064658305768924
1700000000 -0.9338091405128642 0.0727219852191734
1750000000 -0.877451801745856 0.3190082550312249
1800000000 -0.7581351813310747 0.5387292301031928
1850000000 -0.5867186937736604 0.718808689426943
1900000000 -0.3735824210177097 0.8465051064983493
1950000000 -0.13543623755901102 0.9124302627246937
2000000000 0.11029218695164077 0.9125987406396411
2050000000 0.34578907066924036 0.8485999963421578
2100000000 0.5553093616431308 0.7256538939316485
2.15E9 0.7248697847621305 0.5526799253073689
2.2E9 0.8420750528749633 0.34159879652617864
2.25E9 0.8992352634231339 0.10897968990285707
2.3E9 0.8943790192817318 -0.12921641809985002
2.35E9 0.827902925133974 -0.35762837253547153
2.4E9 0.7040709559267526 -0.5598480071775248
2.45E9 0.5329328467458648 -0.7217341096830238
2.5E9 0.3267900267636197 -0.8335086168225619
2.55E9 0.09934291955434027 -0.8880236154251359
2.6E9 -0.1336971339563501 -0.8816063450395047
2.65E9 -0.35616770274132126 -0.8153259219182429
2.7E9 -0.5531359750129029 -0.6944042004323259
2.75E9 -0.7117703369463553 -0.5275479234957684
2.8E9 -0.8218342075884828 -0.3261101024143018
2.85E9 -0.8760729170891335 -0.10382472598961817
2.9E9 -0.8713152293960349 0.12393871886683422
2.95E9 -0.8087220165447566 0.34198946332858543
3.0E9 -0.6928371944788627 0.536203528706573
3.05E9 -0.5315863630533456 0.6937486356862357
3.1E9 -0.33619819276625895 0.8043771597666218
3.15E9 -0.11993636717063937 0.8613761210198257
3.2E9 0.10296207645453014 0.8615082322705296
3.25E9 0.3178641435129098 0.8051312712725638
3.3E9 0.5107206547936158 0.6963856616731365
3.35E9 0.6691477379055606 0.5428399052580413
3.4E9 0.7831844401316688 0.35482384830045377
3.45E9 0.8457943519772471 0.14472668255210727
3.5E9 0.8532631579624976 -0.07372640467626435
3.55E9 0.8054917130521823 -0.28634904559053237
3.6E9 0.7059686102318591 -0.47950009239203606
3.65E9 0.5614156179035144 -0.6409369177656035
3.7E9 0.38135148479384107 -0.7604934393002148
3.75E9 0.17753328832806725 -0.8307387970054649
3.8E9 -0.036845922797828834 -0.8474793260704729
3.85E9 -0.2480436040523113 -0.8099615087605768
3.9E9 -0.4426104802503937 -0.720868711469853
3.95E9 -0.6082268955209359 -0.5861544783567568
4.0E9 -0.734501674938714 -0.41465085476286623
4.05E9 -0.8136266897281923 -0.21746641168990669
4.1E9 -0.8408387853288636 -0.00725625329105346
4.15E9 -0.8146939439414065 0.20258233001738174
4.2E9 -0.7371424245212259 0.3987638049720743
4.25E9 -0.6133775929469417 0.5689659340329533
4.3E9 -0.45146884554829525 0.7026021160072502
4.35E9 -0.26182446685404237 0.7914658279257832
4.4E9 -0.056519596826610834 0.8302242188549993
4.45E9 0.1514788797901616 0.816728655471645
4.5E9 0.3491354997353902 0.7521157316087891
4.55E9 0.5241574593653413 0.6407008913118999
4.6E9 0.6657481677204384 0.48968079749648236
4.65E9 0.7652620719778966 0.3086627132306097
4.7E9 0.8167199817400861 0.10904969832783762
4.75E9 0.8171542238390522 -0.09667680359785391
4.8E9 0.7667673204194853 -0.2957312271871929
4.85E9 0.6688981583184355 -0.475809816512781
4.9E9 0.5297982531199067 -0.6258424126963921
4.95E9 0.35823201853677866 -0.7366646812692563
5.0E9 0.1649265370396762 -0.8015706030300174
5.05E9 -0.038095488290411164 -0.816713210232609
5.1E9 -0.23825993556585257 -0.7813297809415838
5.15E9 -0.42321759048342256 -0.6977772156521985
5.2E9 -0.5816046526965573 -0.5713751373305865
5.25E9 -0.7037403850504902 -0.4100665022123659
5.3E9 -0.7822186816088913 -0.22391671886005501
5.35E9 -0.81235650871996 -0.024482500331102146
5.4E9 -0.7924710753149218 0.17590959286882246
5.45E9 -0.7239688176449359 0.36492895219387916
5.5E9 -0.6112416498994664 0.5310024351128073
5.55E9 -0.4613784318142018 0.6640235989932138
5.6E9 -0.28371149745457347 0.7559654811066479
5.65E9 -0.08922851226632318 0.8013595816258268
5.7E9 0.11011198747328646 0.7976129646055031
5.75E9 0.30211777193336986 0.7451461949533558
5.8E9 0.47510694100653467 0.6473463221895093
5.85E9 0.6186135894123709 0.5103405449033245
5.9E9 0.7240133076307012 0.34260681656370173
5.95E9 0.7850324302126573 0.1544468693476085
6.0E9 0.7981124574682671 -0.04264546724002147
6.05E9 0.7626098737232887 -0.23668242384177585
6.1E9 0.6808211793728867 -0.4159055212980134
6.15E9 0.5578328754170928 -0.5694915192049994
6.2E9 0.4012059484309301 -0.6881999720795835
6.25E9 0.22051369371595816 -0.7649246404710656
6.3E9 0.026760084123441177 -0.7951163626612439
6.35E9 -0.16828707138471657 -0.7770521766239625
6.4E9 -0.3528086476017497 -0.7119342256828961
6.45E9 -0.5156497190243815 -0.6038119056508706
6.5E9 -0.6469946986113477 -0.45933131362786067
6.55E9 -0.7389606991937131 -0.2873267174855771
6.6E9 -0.7860723857747176 -0.098278771544623
6.65E9 -0.7855887669661473 0.09632717770788929
6.7E9 -0.7376616527910547 0.2847028061494305
6.75E9 -0.6453162609905727 0.45547473445963127
6.8E9 -0.5142559023570612 0.5983738906666809
6.85E9 -0.3525039548562925 0.7048536439904203
6.9E9 -0.16990659810277614 0.7685990105165816
6.95E9 0.02247171688630463 0.7858966388096815
7.0E9 0.21302190160450163 0.7558445064045269
7.05E9 0.39029126871714387 0.680390561168662
7.1E9 0.5436694795239244 0.5642001638488691
7.15E9 0.6640187245859306 0.4143624208593177
7.2E9 0.744211606528938 0.23995474028605643
7.25E9 0.7795462592295035 0.05149274052046168
7.3E9 0.7680157664644999 -0.13970132405041122
7.35E9 0.7104174713594038 -0.3221743678452867
7.4E9 0.6102968521599472 -0.4850232014855948
7.45E9 0.47372986600710587 -0.6185408656948307
7.5E9 0.30895664003524853 -0.7147912597126662
7.55E9 0.12588773732323927 -0.7680786915806253
7.6E9 -0.0644884396708159 -0.7752847254518361
7.65E9 -0.2507626126636467 -0.7360520617049366
7.7E9 -0.42178731313665596 -0.6528038706587366
7.75E9 -0.5673446223705014 -0.5305966101190548
7.8E9 -0.6787586636459149 -0.37681437453621175
7.85E9 -0.7494154264879885 -0.20072263325194686
7.9E9 -0.7751578534359949 -0.012908142336140505
7.95E9 -0.754531684781875 0.17536081333259437
8.0E9 -0.6888668739754916 0.35281446894338636
8.05E9 -0.5821898146748371 0.5088599128744474
8.1E9 -0.4409723971320628 0.6342158967005744
8.15E9 -0.2737342319812891 0.7214653295504772
8.2E9 -0.09052348368120385 0.7654922370536543
8.25E9 0.09769099051462185 0.7637776257284652
8.3E9 0.27967854624640154 0.7165378197265918
8.35E9 0.4446166309749927 0.6266987293758999
8.4E9 0.5827316927138257 0.4997094719553274
8.45E9 0.6858736828830403 0.34320816333571624
8.5E9 0.7479912953889305 0.16656101521880706
8.55E9 0.7654813363868591 -0.019697280413094268
8.6E9 0.7373931145624198 -0.2044887775092856
8.65E9 0.6654770498234953 -0.37684676281650903
8.7E9 0.5540754097620847 -0.5265618397496602
8.75E9 0.4098618136595441 -0.6447825677691006
8.8E9 0.2414445253836034 -0.7245361305254846
8.85E9 0.05885622578179586 -0.7611388276414296
8.9E9 -0.12704045558683408 -0.752472174230014
8.95E9 -0.30519722969041896 -0.6991078367651222
9.0E9 -0.46503650147127173 -0.6042732271610132
9.05E9 -0.597080801002033 -0.47365890438163955
9.1E9 -0.6935173954974814 -0.3150784738592161
9.15E9 -0.7486636677735892 -0.13800082519007587
9.2E9 -0.7593046186502903 0.047017335336606014
9.25E9 -0.7248816122522449 0.2289642391305233
9.3E9 -0.6475207441148827 0.39703239806562896
9.35E9 -0.5318993272017004 0.5412641049929788
9.4E9 -0.38495922076381767 0.653143634505335
9.45E9 -0.21548531450852312 0.7261002881211154
9.5E9 -0.03357573275015131 0.7558923562778942
9.55E9 0.1499633180162947 0.7408498353000939
9.6E9 0.32426104296640124 0.6819627260781675
9.65E9 0.47902522196499203 0.582811284374933
9.7E9 0.6051471164859635 0.44934403963624814
9.75E9 0.6952331488979994 0.2895181738180385
9.8E9 0.7440332257015858 0.11282448947625812
9.85E9 0.7487419214598469 -0.07027464186847208
9.9E9 0.7091561745294449 -0.24896149423428318
9.95E9 0.6276812619131982 -0.41269785805008974
1.0E10 0.5091852320406025 -0.5518422728543823
1000000000 0.7872475661771419 0.5664651905326668
1050000000 0.9111746931914205 0.3269275939615862
1100000000 0.9626517877693446 0.06339329957734158
1150000000 0.9409152805394886 -0.20129212621482662
1200000000 0.8481336988028598 -0.4495051161066191
1250000000 0.6916313326711525 -0.6629352864081276
1300000000 0.4837920380530511 -0.8236531626028468
1350000000 0.24116919901493272 -0.9220854085144279
1400000000 -0.01751269887689393 -0.9501603815120787
1450000000 -0.272715572702463 -0.9083358488327049
1500000000 -0.5067992828752167 -0.7992795442955987
1550000000 -0.7020264903639927 -0.6310989046803935
1600000000 -0.8422387055427679 -0.4180486577170336
1650000000 -0.9217515346100944 -0.177604153319298
1700000000 -0.933482785124954 0.07582081044184734
1750000000 -0.8762962936256328 0.3219076665351932
1800000000 -0.7562614613016825 0.5412359176236123
1850000000 -0.5842256203021996 0.7207418962876978
1900000000 -0.3706617202506459 0.8477002176224815
1950000000 -0.13230516007289525 0.9128233104492893
2000000000 0.11342680498506841 0.9121552060680568
2050000000 0.348695048522338 0.8473378520266748
2100000000 0.5577755146123142 0.7236894745562611
2.15E9 0.7267485679720412 0.5501359730739718
2.2E9 0.8432146613295824 0.3386531207417096
2.25E9 0.8995675662842019 0.10585439069477394
2.3E9 0.8938992367420213 -0.13231534112262897
2.35E9 0.826633579188584 -0.36049624187336615
2.4E9 0.7021087204940888 -0.562272603204663
2.45E9 0.5304268701715066 -0.7235678131618896
2.5E9 0.3239028789257159 -0.8346322238289874
2.55E9 0.09627743193296344 -0.8883612269692538
2.6E9 -0.13672915027896285 -0.8811498999053923
2.65E9 -0.3589711605767789 -0.8141140312895865
2.7E9 -0.5555212017354151 -0.6925216974244212
2.75E9 -0.713583561207427 -0.525134821114399
2.8E9 -0.822967642228522 -0.3233298952056987
2.85E9 -0.8764560684795191 -0.10086366302460353
2.9E9 -0.8709336853192524 0.12687839380440447
2.95E9 -0.8076156709605972 0.34471763122286014
3.0E9 -0.6910859197124758 0.5385469199307301
3.05E9 -0.5293143066760231 0.6955575017037036
3.1E9 -0.33356325029675366 0.8055441410408051
3.15E9 -0.11711282476983449 0.8618371961634715
3.2E9 0.10578909121655063 0.8612438248752409
3.25E9 0.3205122361164982 0.8041714096204411
3.3E9 0.5130245971289199 0.6948038352851498
3.35E9 0.6709663534383797 0.5407467284631634
3.4E9 0.7844101340406809 0.35236165380043677
3.45E9 0.8463603176518988 0.14205774976569083
3.5E9 0.8531446870108085 -0.07643038703608906
3.55E9 0.8047078006134186 -0.2889166861031887
3.6E9 0.7045803032405061 -0.4817722858773511
3.65E9 0.5595202050601227 -0.6427763698307521
3.7E9 0.3790762597503598 -0.7617920830628073
3.75E9 0.17502725494355237 -0.831424678433839
3.8E9 -0.03942240302278943 -0.847520288370629
3.85E9 -0.2505287835447582 -0.8093660301704868
3.9E9 -0.4448512048012611 -0.7196848622889609
3.95E9 -0.6100882141268156 -0.5844661024032265
4.0E9 -0.7358747680263907 -0.41257150011183613
4.05E9 -0.8144350895151815 -0.21513178308025283
4.1E9 -0.8410425541745425 -0.004815278372012792
4.15E9 -0.814291339543035 0.2049770569751969
4.2E9 -0.7361692266653738 0.4009655254080123
4.25E9 -0.6119040996502065 0.5708427547362132
4.3E9 -0.44959469089245535 0.7040448410279894
4.35E9 -0.2596718189352859 0.7923941180282839
4.4E9 -0.05422516486346947 0.8305908708545598
4.45E9 0.15377256277346574 0.8165217198540313
4.5E9 0.35128888083598064 0.7513583946208577
4.55E9 0.5260423369621373 0.6394492668049108
4.6E9 0.6672551829559077 0.48801980047027504
4.65E9 0.7663068784539544 0.30670030266579495
4.7E9 0.817247769494339 0.1069098919776092
4.75E9 0.8171423833703682 -0.0988617089856613
4.8E9 0.7662261269177564 -0.29782875328386965
4.85E9 0.6678694888397687 -0.47769522856397056
4.9E9 0.5283524606101307 -0.6274060189239173
4.95E9 0.3564631802158729 -0.7378180932787466
5.0E9 0.16294639056757135 -0.8022516091728037
5.05E9 -0.040164539885914154 -0.8168890066513946
5.1E9 -0.24029232706101056 -0.7809983995574921
5.15E9 -0.4250921549482268 -0.6969670918034603
5.2E9 -0.58321178957827 -0.5701428721401632
5.25E9 -0.7049884161068568 -0.4084929800471144
5.3E9 -0.7830390264327152 -0.22210183534228173
5.35E9 -0.8127073855646837 -0.022538838038760237
5.4E9 -0.7923395252279729 0.17786374341762756
5.45E9 -0.7233709539167644 0.3667767920431095
5.5E9 -0.610221146418157 0.5326356323982803
5.55E9 -0.46000337560933674 0.6653486158180314
5.6E9 -0.2820698329510499 0.7569088760001874
5.65E9 -0.08742238966563783 0.8018719857842588
5.7E9 0.11197258631966492 0.7976715230405188
5.75E9 0.3039217237840777 0.7447553670851074
5.8E9 0.4767485766088697 0.6465370417336158
5.85E9 0.6199988049287498 0.5091678387090215
5.9E9 0.7250648481485289 0.34114606986402535
5.95E9 0.785694064479197 0.1527889956369643
6.0E9 0.7983518379268141 -0.04439964249568624
6.05E9 0.7624199568074094 -0.23842822576360143
6.1E9 0.6802201629505102 -0.41754058292317214
6.15E9 0.5568626898683589 -0.5709216876372851
6.2E9 0.39992941296720486 -0.6893446384637011
6.25E9 0.2190105184057785 -0.7657212041256449
6.3E9 0.02512195853818007 -0.7955235887063209
6.35E9 -0.16996201285787402 -0.7770522681365084
6.4E9 -0.3544216589802586 -0.7115335037852525
6.45E9 -0.5171072324181396 -0.6030400709034063
6.5E9 -0.648213730663374 -0.4582393453647541
6.55E9 -0.7398735576396652 -0.2859835492579143
6.6E9 -0.7866304029323693 -0.09676695498015252
6.65E9 -0.7857648485682275 0.09791654709587956
6.7E9 -0.7374515064424136 0.2862755843713748
6.75E9 -0.6447382531127964 0.45693930701987945
6.8E9 -0.513349579267922 0.5996464957958183
6.85E9 -0.35132734587117326 0.7058631277997773
6.9E9 -0.1685324902047164 0.7692907445906236
6.95E9 0.02396028689093459 0.7862353902246598
7.0E9 0.2145366533316409 0.7558161199399388
7.05E9 0.3917438798426089 0.6800023880959196
7.1E9 0.5449766796816103 0.563480246015253
7.15E9 0.6651069953511787 0.41335750850365205
7.2E9 0.7450212328446167 0.23872728376369629
7.25E9 0.7800345209004675 0.05011704748233538
7.3E9 0.7681591104067831 -0.14114353504158744
7.35E9 0.7102125633323443 -0.32359875962905427
7.4E9 0.6097604680843105 -0.4863476855724673
7.45E9 0.472897645173768 -0.6196902734680352
7.5E9 0.307880783086096 -0.715701559781573
7.55E9 0.12463378838137995 -0.7687005215391783
7.6E9 -0.06584553753408447 -0.7755860444427668
7.65E9 -0.25214295894333416 -0.7360197791355095
7.7E9 -0.42311073009361266 -0.6524443642216567
7.75E9 -0.5685353012201171 -0.5299351102362855
7.8E9 -0.6797495055017255 -0.3758932589199327
7.85E9 -0.7501518248899723 -0.19959874038502287
7.9E9 -0.7756006995179994 -0.011649271816190753
7.95E9 -0.7546594246492095 0.17667999674869644
8.0E9 -0.6886765075539063 0.35411687589610785
8.05E9 -0.581696791912799 0.5100705446296941
8.1E9 -0.44020943611313934 0.635266164880993
8.15E9 -0.27274914918443666 0.7222969275947362
8.2E9 -0.08937618467301399 0.7660603439330367
8.25E9 0.0989321650602708 0.7640532686111383
8.3E9 0.2809408917255755 0.7165092774412998
8.35E9 0.4458273224926709 0.626371918423611
8.4E9 0.5838219544852157 0.4991073172945513
8.45E9 0.6867826489540431 0.3423690135190664
8.5E9 0.7486693518431551 0.16553621267126473
8.55E9 0.7658927698261337 -0.020846520299359506
8.6E9 0.7375179338106541 -0.2056949916746243
8.65E9 0.6653118950745533 -0.3780401609178257
8.7E9 0.5536335134955904 -0.5276742987298492
8.75E9 0.4091720284723568 -0.6457514791100418
8.8E9 0.24054948341588053 -0.7253078889060292
8.85E9 0.05780974064953313 -0.761671770398475
8.9E9 -0.1281765925634069 -0.7527388115272198
8.95E9 -0.30635687376295506 -0.6990962516809155
9.0E9 -0.4661529901802607 -0.6039875714707428
9.05E9 -0.5980907797923364 -0.4731189674565457
9.1E9 -0.6943644119735292 -0.3143183560524791
9.15E9 -0.7493013270343026 -0.13706680001703542
9.2E9 -0.7596991188995579 0.04806963753877503
9.25E9 -0.7250135183216424 0.23007315308765644
9.3E9 -0.6473859041548515 0.3981338488058729
9.35E9 -0.5315088912619161 0.5422953183737859
9.4E9 -0.3843387753744793 0.6540467134578224
9.45E9 -0.21467320064022133 0.7268254477951828
9.5E9 -0.03262066192627735 0.7564006368798708
9.55E9 0.15100519624455302 0.741115147521705
9.6E9 0.32532944157908195 0.6819731275192634
9.65E9 0.480059189213339 0.5825694329050813
9.7E9 0.6060884818179372 0.44886681790909844
9.75E9 0.6960297512458159 0.28883552521033
9.8E9 0.7446417513085483 0.11197754722588663
9.85E9 0.7491302044756495 -0.07123601534755762
9.9E9 0.7093048457956801 -0.24998161306773825
9.95E9 0.6275846678659932 -0.41371839911110825
1.0E10 0.5088515847727685 -0.5528055665087357
1000000000 0.787905691615184 0.5655095877865067
1050000000 0.9115482750380686 0.32577827845862983
1100000000 0.9626758985487698 0.06216693181117841
1150000000 0.9406163984669575 -0.20252942794935944
1200000000 0.8474932926962642 -0.45063054505228073
1250000000 0.6906787110652353 -0.6638552203123798
1300000000 0.48262089751132464 -0.8242991796784858
1350000000 0.23982482335562097 -0.9224006269130718
1400000000 -0.018904755493059255 -0.9500824155762922
1450000000 -0.2740435331818311 -0.9079030277931226
1500000000 -0.5079875639780284 -0.7984855725119451
1550000000 -0.7029637028535705 -0.6299907042803936
1600000000 -0.8428351747515559 -0.41673827390624957
1650000000 -0.921998326670903 -0.17615933058103816
1700000000 -0.9333231733628538 0.0772953649612157
1750000000 -0.8757400919809222 0.32327733441055917
1800000000 -0.7553741652320337 0.5424240321110025
1850000000 -0.5830368837025018 0.7216594784437576
1900000000 -0.3692725277832214 0.8482590147595239
1950000000 -0.1308216687877067 0.9130068138708922
2000000000 0.11491615586276877 0.9119431912576413
2050000000 0.3500734026972282 0.8467304827197571
2100000000 0.558939883948406 0.7227562881247553
2.15E9 0.7276399521253656 0.5489260285437959
2.2E9 0.8437504339828767 0.3372510175231949
2.25E9 0.8997190145521273 0.104372259522517
2.3E9 0.8936695391833194 -0.1337849359394753
2.35E9 0.8260256709196171 -0.3618583210021293
2.4E9 0.7011724971224855 -0.5634182937680683
2.45E9 0.5292364550487773 -0.7244349497379992
2.5E9 0.3225295321972853 -0.8351624047002952
2.55E9 0.09482102230104471 -0.8885154254835319
2.6E9 -0.13816650255783253 -0.8809287698660244
2.65E9 -0.3603012539028244 -0.8135351159185573
2.7E9 -0.5566507762205987 -0.6916229889082851
2.75E9 -0.7144398047907553 -0.5239866968667224
2.8E9 -0.8235021558132605 -0.32200835893873375
2.85E9 -0.8766332401545711 -0.09945618430483866
2.9E9 -0.87074715186706 0.12827347284395516
2.95E9 -0.8070862300644639 0.34601127328770503
3.0E9 -0.6902501072854181 0.5396574574082394
3.05E9 -0.5282317234152071 0.6964125078128313
3.1E9 -0.3323099624945469 0.8060937845911534
3.15E9 -0.11577070507011147 0.8620515198709244
3.2E9 0.10713171205398489 0.8611130251331827
3.25E9 0.3217683296813878 0.8037106350210124
3.3E9 0.5141163741839014 0.6940482943158743
3.35E9 0.6718266321091271 0.5397487540033576
3.4E9 0.7849877729459724 0.35118946880611623
3.45E9 0.8466241978182993 0.1407886298517825
3.5E9 0.8530832630136409 -0.07771500814034982
3.55E9 0.804330355359181 -0.29013522376512435
3.6E9 0.7039163016210858 -0.4828493028475488
3.65E9 0.558616011632722 -0.6436469274969324
3.7E9 0.37799248785875683 -0.7624049597850031
3.75E9 0.1738348701841467 -0.8317459514746521
3.8E9 -0.04064722730628443 -0.8475349390495069
3.85E9 -0.2517091899886631 -0.8090782302268151
3.9E9 -0.4459143869949264 -0.7191176708131165
3.95E9 -0.6109701126690982 -0.5836595902643573
4.0E9 -0.7365237569896782 -0.41157981211497047
4.05E9 -0.8148149485173953 -0.21401962001210517
4.1E9 -0.8411345031328301 -0.003653596030116159
4.15E9 -0.814094778003096 0.206115616114389
4.2E9 -0.7357014194771754 0.4020111216647731
4.25E9 -0.6111987633787693 0.5717326790705364
4.3E9 -0.44869949454263314 0.7047272586036151
4.35E9 -0.2586451321599452 0.7928309949138275
4.4E9 -0.05313222684141899 0.8307600213091055
4.45E9 0.1548638370194576 0.8164177889199007
4.5E9 0.3523120995132558 0.750992752448553
4.55E9 0.5269366017390004 0.6388489235465652
4.6E9 0.6679686334976296 0.4872254157844822
4.65E9 0.7667995956966493 0.3057634336974436
4.7E9 0.8174939025268171 0.10588967860624375
4.75E9 0.8171314074449452 -0.09990223303254707
4.8E9 0.7659631674038536 -0.29882650400725835
4.85E9 0.667374716291349 -0.4785908382442976
4.9E9 0.5276596106120461 -0.6281473168952298
4.95E9 0.3556172896389882 -0.738363101737595
5.0E9 0.16200089572587864 -0.802570877796957
5.05E9 -0.04115115823858915 -0.8169671565456906
5.1E9 -0.24126014393382444 -0.7808347954740935
5.15E9 -0.4259834238772829 -0.696575615670585
5.2E9 -0.5839743686509954 -0.5695508288489471
5.25E9 -0.7055787958487342 -0.4077392168146742
5.3E9 -0.7834247840071877 -0.22123420056098309
5.35E9 -0.8128689262169488 -0.021611144515182014
5.4E9 -0.7922710176124165 0.17879505766883405
5.45E9 -0.7230804170634598 0.36765609613890676
5.5E9 -0.6097297003102127 0.5334114162044808
5.55E9 -0.4593437198947264 0.665976485338155
5.6E9 -0.2812840647694172 0.7573540560688098
5.65E9 -0.08655930966125568 0.8021111911195691
5.7E9 0.11286050373931095 0.7976941024429387
5.75E9 0.304781505942686 0.7445636734755685
5.8E9 0.4775298825593325 0.6461460287077466
5.85E9 0.620656828862471 0.5086039293613848
5.9E9 0.7255628350002841 0.3404453833835764
5.95E9 0.7860053038819541 0.1519950500662034
6.0E9 0.7984610356949908 -0.04523860765852197
6.05E9 0.7623239202352128 -0.239262146425958
6.1E9 0.6799277755868822 -0.4183205179620032
6.15E9 0.5563941909635398 -0.5716026494607378
6.2E9 0.39931503449423644 -0.6898881485670221
6.25E9 0.21828856677594466 -0.7660974332310428
6.3E9 0.024336457452752747 -0.7957129655484686
6.35E9 -0.17076397871068957 -0.7770464712258258
6.4E9 -0.3551927436003056 -0.7113357853793902
6.45E9 -0.5178026078994232 -0.6026649004823277
6.5E9 -0.6487936839260775 -0.4577113993270503
6.55E9 -0.7403057528906447 -0.285336112102368
6.6E9 -0.786891678434621 -0.09603983245680288
6.65E9 -0.7858424449681632 0.09867947299757371
6.7E9 -0.737343659353758 0.2870290073930983
6.75E9 -0.6444541225652121 0.4576391927486067
6.8E9 -0.5129085302246511 0.6002526581769091
6.85E9 -0.35075763432538487 0.706341532164379
6.9E9 -0.16786944549450133 0.7696154031838974
6.95E9 0.02467646352550137 0.7863897445385486
7.0E9 0.21526333323549007 0.7557938386317968
7.05E9 0.3924385429390846 0.6798075472052597
7.1E9 0.5455993897789825 0.5631268966956017
7.15E9 0.665622671455735 0.4128686738524536
7.2E9 0.7454015903239647 0.238133458281932
7.25E9 0.780259579950215 0.049454298574580065
7.3E9 0.768218197343516 -0.14183574528205148
7.35E9 0.7101047608269853 -0.32427990268835616
7.4E9 0.6094945018036715 -0.4869785110575398
7.45E9 0.4724912249402117 -0.6202350389421428
7.5E9 0.30735944538170357 -0.7161300240365611
7.55E9 0.12402931276675631 -0.7689895942902526
7.6E9 -0.06649704367596528 -0.7757210052959508
7.65E9 -0.2528031958667626 -0.7359950027877113
7.7E9 -0.4237414384678145 -0.652263516295764
7.75E9 -0.5691004643282124 -0.5296108077531189
7.8E9 -0.6802173949063925 -0.375446219766833
7.85E9 -0.7504967728126435 -0.19905647557533473
7.9E9 -0.7758044974172922 -0.011044401027518212
7.95E9 -0.7547122700646234 0.17731170376766214
8.0E9 -0.6885774489066894 0.3547386136046683
8.05E9 -0.5814536518292999 0.5106466148941616
8.1E9 -0.4398382257929645 0.6357640221908033
8.15E9 -0.272273017061378 0.7226890074889024
8.2E9 -0.08882396993196356 0.7663255713805959
8.25E9 0.09952768151669887 0.7641781648142807
8.3E9 0.2815449307895433 0.7164886095884575
8.35E9 0.44640512856652476 0.6262088653437435
8.4E9 0.5843407782093414 0.4988131527184579
8.45E9 0.6872135796674581 0.34196233595708964
8.5E9 0.7489889003432219 0.16504177527560324
8.55E9 0.7660841186401722 -0.021399306171803096
8.6E9 0.7375717924403233 -0.2062737898827537
8.65E9 0.6652269203015845 -0.3786115811355266
8.7E9 0.5534162787290466 -0.5282057992150591
8.75E9 0.4088365502229909 -0.6462131966837644
8.8E9 0.24011633633717083 -0.7256742963426656
8.85E9 0.05730481424162122 -0.7619230714785566
8.9E9 -0.12872362346168825 -0.7528619985710279
8.95E9 -0.3069142771065867 -0.6990857689536859
9.0E9 -0.4666888048881342 -0.6038455496861297
9.05E9 -0.5985746396343355 -0.4728550187154543
9.1E9 -0.6947692609870952 -0.31394894367662046
9.15E9 -0.7496049285394286 -0.13661422240687168
9.2E9 -0.7598852724500753 0.048578587278455904
9.25E9 -0.7250729165780534 0.2306087710293462
9.3E9 -0.647316583614548 0.39866525288018306
9.35E9 -0.5313162555572809 0.5427922272107302
9.4E9 -0.38403519569454697 0.6544811673976572
9.45E9 -0.21427722292865756 0.7271733733060423
9.5E9 -0.03215587312755393 0.7566431668844624
9.55E9 0.15151157190770823 0.7412396264213275
9.6E9 0.3258481315423245 0.6819737496745989
9.65E9 0.48056055371504147 0.5824474854985556
9.7E9 0.6065441916025662 0.44863052197155656
9.75E9 0.6964143688982827 0.2884994908049252
9.8E9 0.744934130797007 0.11156187920428462
9.85E9 0.7493146350539327 -0.07170690682473077
9.9E9 0.7093718812558376 -0.25048042854193336
9.95E9 0.6275315994389349 -0.41421651285039973
1.0E10 0.5086825349800937 -0.5532746501741154
1000000000 0.7878568485396347 0.565604048889213
1050000000 0.9115169765937936 0.3258730489861868
1100000000 0.9626539389662914 0.062286528458713054
1150000000 0.9406478985819519 -0.20242937099734554
1200000000 0.8475514590727073 -0.4505322677296237
1250000000 0.6907542344644515 -0.6637655301387895
1300000000 0.4827367964326831 -0.8242418833749563
1350000000 0.23993454185273608 -0.9223819670338156
1400000000 -0.018784782890151775 -0.9500787091819259
1450000000 -0.27391750166753887 -0.9079557951975796
1500000000 -0.5078890935921885 -0.7985612098885979
1550000000 -0.7028849601271361 -0.6300807245149969
1600000000 -0.842771900555102 -0.4168665947484293
1650000000 -0.9219890846402317 -0.1762883378547039
1700000000 -0.9333381864123629 0.07717219003934203
1750000000 -0.8757842465853675 0.32314494281583817
1800000000 -0.7554673852545781 0.5423207516017914
1850000000 -0.5831396545407482 0.7215863514552487
1900000000 -0.369396185476739 0.8482022335528191
1950000000 -0.13096264505249683 0.9129960095760437
2000000000 0.11478626169285651 0.9119717973190622
2050000000 0.3499517217344201 0.8467803088192065
2100000000 0.558829683307164 0.7228495957541091
2.15E9 0.7275687931087262 0.5490389013353194
2.2E9 0.8437036567637772 0.337375780915374
2.25E9 0.8997061753742426 0.10451190948220801
2.3E9 0.8937005622689544 -0.1336498779108611
2.35E9 0.8260834919066284 -0.3617407926332339
2.4E9 0.7012602314683658 -0.563311356613163
2.45E9 0.5293533469984268 -0.7243603799053475
2.5E9 0.32265608515961497 -0.8351211992071719
2.55E9 0.09495500382008402 -0.888504110854512
2.6E9 -0.13803140186722535 -0.8809557205301026
2.65E9 -0.3601823304250214 -0.8135962825943772
2.7E9 -0.556549909060509 -0.6917092368762991
2.75E9 -0.714363606296682 -0.524098662570914
2.8E9 -0.8234601332812774 -0.3221351268917238
2.85E9 -0.8766236475337374 -0.099587243607825
2.9E9 -0.8707708086886999 0.1281428914587853
2.95E9 -0.8071440444878244 0.34589219449904396
3.0E9 -0.6903348232188645 0.5395586178742632
3.05E9 -0.528338169272649 0.6963376279530791
3.1E9 -0.33243233567390745 0.8060492805176143
3.15E9 -0.11589880888710163 0.8620401546700258
3.2E9 0.1070056016106408 0.8611336193538981
3.25E9 0.32165162025490235 0.80376261963836
3.3E9 0.5140177223787135 0.694127980253707
3.35E9 0.6717517688122467 0.5398497418208827
3.4E9 0.7849408161258928 0.3513056339724818
3.45E9 0.8466084536632796 0.14091227641904372
3.5E9 0.8530990715647975 -0.07759235376300269
3.55E9 0.8043761167173266 -0.29002106646243236
3.6E9 0.703989006406502 -0.4827508600358205
3.65E9 0.5587105333068102 -0.6435704672226971
3.7E9 0.37810248507230054 -0.7623549069162446
3.75E9 0.17395328460215112 -0.8317252275230015
3.8E9 -0.040528144269529776 -0.8475445689274201
3.85E9 -0.25159701905075543 -0.8091171065088846
3.9E9 -0.44581606466093526 -0.719182992428244
3.95E9 -0.6108917367033654 -0.5837469384657271
4.0E9 -0.7364700438868136 -0.41168334574747356
4.05E9 -0.8147889553636354 -0.21413261082680474
4.1E9 -0.8411375453732509 -0.0037688025454952
4.15E9 -0.8141262876885847 0.20600551076194457
4.2E9 -0.7357590218797766 0.401912975138104
4.25E9 -0.6112784942918723 0.5716524928348446
4.3E9 -0.4487960463233514 0.704669816999873
4.35E9 -0.25875223244256473 0.7927995606742024
4.4E9 -0.05324306599380346 0.8307561885398613
4.45E9 0.1547561952549156 0.8164414238692843
4.5E9 0.35221428720356834 0.7510420236144766
4.55E9 0.5268545459226452 0.6389204513772931
4.6E9 0.6679072160419981 0.48731449810639743
4.65E9 0.7667623635085659 0.3058643423582299
4.7E9 0.8174828616614154 0.10599602845309924
4.75E9 0.817146920804013 -0.09979708128898412
4.8E9 0.7660039513091808 -0.2987290303460449
4.85E9 0.667437942864419 -0.4785069607029919
4.9E9 0.5277411086224298 -0.6280820343544452
4.95E9 0.3557118216399019 -0.73832020218338
5.0E9 0.1621024950679626 -0.8025527240871763
5.05E9 -0.04104881067356683 -0.8169745636179343
5.1E9 -0.241163329080893 -0.7808670044396946
5.15E9 -0.4258980029334712 -0.6966303630607631
5.2E9 -0.5839054329054646 -0.569624505901305
5.25E9 -0.7055303689887771 -0.40782710741279654
5.3E9 -0.7833995933485103 -0.22133078173956983
5.35E9 -0.8128682551624776 -0.021710430814249337
5.4E9 -0.7922946468082621 0.17869914748819185
5.45E9 -0.7231266556047722 0.3675693721628984
5.5E9 -0.6097955034207209 0.5333390710126235
5.55E9 -0.4594248855067078 0.6659227875525352
5.6E9 -0.2813754973570336 0.7573221012045313
5.65E9 -0.08665533579550698 0.8021027242170201
5.7E9 0.11276578693130546 0.7977094229892621
5.75E9 0.30469387042899854 0.7446016281965488